       N       E                     dE             d eps       ncg     rms          rms(c)
DAV:   1     0.299219304157E+02    0.29922E+02   -0.80390E+03   384   0.881E+02
DAV:   2    -0.237487605120E+02   -0.53671E+02   -0.53601E+02   640   0.130E+02
DAV:   3    -0.243587690897E+02   -0.61001E+00   -0.61001E+00   384   0.197E+01
DAV:   4    -0.243601988510E+02   -0.14298E-02   -0.14298E-02   640   0.895E-01
DAV:   5    -0.243601990909E+02   -0.23990E-06   -0.23990E-06   384   0.651E-03    0.335E+00
DAV:   6    -0.241429937189E+02    0.21721E+00   -0.13100E+00   400   0.501E+00    0.879E-01
DAV:   7    -0.241373656191E+02    0.56281E-02   -0.13844E-02   416   0.976E-01    0.470E-01
DAV:   8    -0.241342428619E+02    0.31228E-02   -0.19629E-03   608   0.260E-01    0.115E-01
DAV:   9    -0.241340895022E+02    0.15336E-03   -0.16783E-04   496   0.771E-02    0.591E-02
DAV:  10    -0.241340897122E+02   -0.20996E-06   -0.12366E-05   480   0.204E-02
   1 F= -.24134090E+02 E0= -.24134090E+02  d E =-.241341E+02
       N       E                     dE             d eps       ncg     rms          rms(c)
DAV:   1    -0.251559296045E+02   -0.10218E+01   -0.25584E+01   416   0.307E+01    0.719E+00
DAV:   2    -0.241588686788E+02    0.99706E+00   -0.76325E+00   384   0.119E+01    0.168E+00
DAV:   3    -0.241279891768E+02    0.30880E-01   -0.12289E-01   400   0.235E+00    0.941E-01
DAV:   4    -0.241120051242E+02    0.15984E-01   -0.15683E-02   496   0.632E-01    0.205E-01
DAV:   5    -0.241112924884E+02    0.71264E-03   -0.19981E-03   464   0.213E-01    0.118E-01
DAV:   6    -0.241112681804E+02    0.24308E-04   -0.13899E-04   448   0.712E-02
   2 F= -.24111268E+02 E0= -.24111268E+02  d E =0.228215E-01
       N       E                     dE             d eps       ncg     rms          rms(c)
DAV:   1    -0.245621286321E+02   -0.45084E+00   -0.74364E+00   416   0.176E+01    0.377E+00
DAV:   2    -0.242846609507E+02    0.27747E+00   -0.18619E+00   400   0.603E+00    0.943E-01
DAV:   3    -0.242773849317E+02    0.72760E-02   -0.26642E-02   416   0.127E+00    0.503E-01
DAV:   4    -0.242732569365E+02    0.41280E-02   -0.32348E-03   512   0.290E-01    0.142E-01
DAV:   5    -0.242729422484E+02    0.31469E-03   -0.45716E-04   528   0.117E-01    0.741E-02
DAV:   6    -0.242729409775E+02    0.12709E-05   -0.27320E-05   400   0.296E-02
   3 F= -.24272941E+02 E0= -.24272941E+02  d E =-.138851E+00
       N       E                     dE             d eps       ncg     rms          rms(c)
DAV:   1    -0.242730435193E+02   -0.10127E-03   -0.15117E-03   416   0.246E-01    0.530E-02
DAV:   2    -0.242729899030E+02    0.53616E-04   -0.37418E-04   384   0.864E-02
   4 F= -.24272990E+02 E0= -.24272990E+02  d E =-.138900E+00
       N       E                     dE             d eps       ncg     rms          rms(c)
DAV:   1    -0.242729990535E+02    0.44466E-04   -0.18982E-04   416   0.830E-02    0.233E-02
DAV:   2    -0.242729914985E+02    0.75550E-05   -0.45909E-05   384   0.310E-02
   5 F= -.24272991E+02 E0= -.24272991E+02  d E =-.138902E+00
       N       E                     dE             d eps       ncg     rms          rms(c)
DAV:   1    -0.242729915923E+02    0.74612E-05   -0.56322E-06   432   0.171E-02    0.374E-03
DAV:   2    -0.242729915207E+02    0.71546E-07   -0.10998E-06   432   0.448E-03
   6 F= -.24272992E+02 E0= -.24272992E+02  d E =-.138902E+00
       N       E                     dE             d eps       ncg     rms          rms(c)
DAV:   1    -0.242729929620E+02   -0.13697E-05   -0.35392E-05   416   0.375E-02    0.790E-03
DAV:   2    -0.242729916068E+02    0.13552E-05   -0.88615E-06   400   0.132E-02
   7 F= -.24272992E+02 E0= -.24272992E+02  d E =-.138902E+00
       N       E                     dE             d eps       ncg     rms          rms(c)
DAV:   1    -0.242729919729E+02    0.98911E-06   -0.90412E-06   416   0.200E-02    0.379E-03
DAV:   2    -0.242729916908E+02    0.28210E-06   -0.23702E-06   416   0.673E-03
   8 F= -.24272992E+02 E0= -.24272992E+02  d E =-.138902E+00
       N       E                     dE             d eps       ncg     rms          rms(c)
DAV:   1    -0.242729917391E+02    0.23384E-06   -0.33981E-07   384   0.415E-03    0.734E-04
DAV:   2    -0.242729917285E+02    0.10603E-07   -0.85693E-08   192   0.127E-03
   9 F= -.24272992E+02 E0= -.24272992E+02  d E =-.138902E+00
       N       E                     dE             d eps       ncg     rms          rms(c)
DAV:   1    -0.242730691020E+02   -0.77363E-04   -0.15606E-02   384   0.826E-01    0.214E-02
DAV:   2    -0.242730747940E+02   -0.56920E-05   -0.11170E-04   480   0.786E-02
  10 F= -.24273075E+02 E0= -.24273075E+02  d E =-.830655E-04
       N       E                     dE             d eps       ncg     rms          rms(c)
DAV:   1    -0.242730728574E+02   -0.37554E-05   -0.72406E-06   464   0.172E-02    0.346E-03
DAV:   2    -0.242730727902E+02    0.67216E-07   -0.36752E-07   448   0.418E-03
  11 F= -.24273073E+02 E0= -.24273073E+02  d E =-.810618E-04
       N       E                     dE             d eps       ncg     rms          rms(c)
DAV:   1    -0.242731419901E+02   -0.69133E-04   -0.42017E-03   384   0.447E-01    0.350E-02
DAV:   2    -0.242731177600E+02    0.24230E-04   -0.41023E-05   528   0.423E-02
  12 F= -.24273118E+02 E0= -.24273118E+02  d E =-.449698E-04
       N       E                     dE             d eps       ncg     rms          rms(c)
DAV:   1    -0.242731793614E+02   -0.37371E-04   -0.37229E-02   384   0.133E+00    0.107E-01
DAV:   2    -0.242729474685E+02    0.23189E-03   -0.37086E-04   512   0.127E-01    0.592E-02
DAV:   3    -0.242728359082E+02    0.11156E-03   -0.14897E-04   528   0.725E-02    0.811E-03
DAV:   4    -0.242728342094E+02    0.16988E-05   -0.95135E-06   464   0.202E-02
  13 F= -.24272834E+02 E0= -.24272834E+02  d E =0.238581E-03
       N       E                     dE             d eps       ncg     rms          rms(c)
DAV:   1    -0.242732990312E+02   -0.46312E-03   -0.23638E-02   384   0.106E+00    0.831E-02
DAV:   2    -0.242731618169E+02    0.13721E-03   -0.23198E-04   528   0.101E-01    0.457E-02
DAV:   3    -0.242730956682E+02    0.66149E-04   -0.86288E-05   544   0.552E-02
  14 F= -.24273096E+02 E0= -.24273096E+02  d E =-.228780E-04
       N       E                     dE             d eps       ncg     rms          rms(c)
DAV:   1    -0.242731079561E+02    0.53861E-04   -0.44555E-04   400   0.146E-01    0.115E-02
DAV:   2    -0.242731049513E+02    0.30048E-05   -0.43991E-06   496   0.135E-02
  15 F= -.24273105E+02 E0= -.24273105E+02  d E =-.321610E-04
       N       E                     dE             d eps       ncg     rms          rms(c)
DAV:   1    -0.242731060402E+02    0.19158E-05   -0.52359E-05   400   0.503E-02    0.493E-03
DAV:   2    -0.242731054457E+02    0.59452E-06   -0.62515E-07   496   0.507E-03
  16 F= -.24273105E+02 E0= -.24273105E+02  d E =-.326555E-04
       N       E                     dE             d eps       ncg     rms          rms(c)
DAV:   1    -0.242731063591E+02   -0.31892E-06   -0.37102E-05   400   0.422E-02    0.363E-03
DAV:   2    -0.242731060425E+02    0.31663E-06   -0.38711E-07   512   0.401E-03
  17 F= -.24273106E+02 E0= -.24273106E+02  d E =-.332523E-04
       N       E                     dE             d eps       ncg     rms          rms(c)
DAV:   1    -0.242731061193E+02    0.23982E-06   -0.53584E-06   400   0.161E-02    0.156E-03
DAV:   2    -0.242731060513E+02    0.68040E-07   -0.63124E-08   416   0.162E-03
  18 F= -.24273106E+02 E0= -.24273106E+02  d E =-.332610E-04
       N       E                     dE             d eps       ncg     rms          rms(c)
DAV:   1    -0.242731060790E+02    0.40334E-07   -0.13600E-06   400   0.810E-03    0.744E-04
DAV:   2    -0.242731060600E+02    0.18996E-07   -0.14692E-08   208   0.795E-04
  19 F= -.24273106E+02 E0= -.24273106E+02  d E =-.332698E-04
       N       E                     dE             d eps       ncg     rms          rms(c)
DAV:   1    -0.242731060580E+02    0.20958E-07   -0.34408E-07   448   0.407E-03    0.369E-04
DAV:   2    -0.242731060517E+02    0.63274E-08   -0.30412E-09   192   0.368E-04
  20 F= -.24273106E+02 E0= -.24273106E+02  d E =-.332615E-04
       N       E                     dE             d eps       ncg     rms          rms(c)
DAV:   1    -0.242731060527E+02    0.53734E-08   -0.83661E-08   192   0.201E-03    0.139E-04
DAV:   2    -0.242731060532E+02   -0.55093E-09   -0.35832E-09   192   0.478E-04
  21 F= -.24273106E+02 E0= -.24273106E+02  d E =-.332630E-04
       N       E                     dE             d eps       ncg     rms          rms(c)
DAV:   1    -0.242731060540E+02   -0.13509E-08   -0.54636E-10   192   0.160E-04    0.308E-05
DAV:   2    -0.242731060541E+02   -0.10323E-09   -0.24583E-11   192   0.370E-05
  22 F= -.24273106E+02 E0= -.24273106E+02  d E =-.332639E-04
       N       E                     dE             d eps       ncg     rms          rms(c)
DAV:   1    -0.242731060534E+02    0.63892E-09   -0.14545E-08   192   0.845E-04    0.675E-05
DAV:   2    -0.242731060530E+02    0.35163E-09   -0.61647E-10   192   0.197E-04
  23 F= -.24273106E+02 E0= -.24273106E+02  d E =-.332628E-04
       N       E                     dE             d eps       ncg     rms          rms(c)
DAV:   1    -0.242731060536E+02   -0.22476E-09   -0.10643E-08   192   0.716E-04    0.518E-05
DAV:   2    -0.242731060538E+02   -0.20736E-09   -0.42041E-10   192   0.162E-04
  24 F= -.24273106E+02 E0= -.24273106E+02  d E =-.332636E-04
       N       E                     dE             d eps       ncg     rms          rms(c)
DAV:   1    -0.242731070075E+02   -0.95393E-06   -0.50851E-05   384   0.470E-02    0.619E-03
DAV:   2    -0.242731060863E+02    0.92127E-06   -0.51101E-06   384   0.107E-02
  25 F= -.24273106E+02 E0= -.24273106E+02  d E =-.324529E-07
       N       E                     dE             d eps       ncg     rms          rms(c)
DAV:   1    -0.242731061232E+02    0.88435E-06   -0.53474E-06   384   0.155E-02    0.165E-03
DAV:   2    -0.242731060419E+02    0.81262E-07   -0.54309E-07   368   0.348E-03
  26 F= -.24273106E+02 E0= -.24273106E+02  d E =0.118974E-07
       N       E                     dE             d eps       ncg     rms          rms(c)
DAV:   1    -0.242731060538E+02    0.69401E-07   -0.56725E-07   384   0.490E-03    0.646E-04
DAV:   2    -0.242731060616E+02   -0.78599E-08   -0.50305E-08   192   0.110E-03
  27 F= -.24273106E+02 E0= -.24273106E+02  d E =-.782359E-08
       N       E                     dE             d eps       ncg     rms          rms(c)
DAV:   1    -0.242731060700E+02   -0.16264E-07   -0.38356E-08   192   0.130E-03    0.259E-04
DAV:   2    -0.242731060803E+02   -0.10226E-07   -0.37644E-09   192   0.425E-04
  28 F= -.24273106E+02 E0= -.24273106E+02  d E =-.264538E-07
       N       E                     dE             d eps       ncg     rms          rms(c)
DAV:   1    -0.242731058405E+02    0.22956E-06   -0.72252E-06   400   0.173E-02    0.296E-03
DAV:   2    -0.242731055940E+02    0.24643E-06   -0.10956E-06   400   0.475E-03
  29 F= -.24273106E+02 E0= -.24273106E+02  d E =0.486212E-06
       N       E                     dE             d eps       ncg     rms          rms(c)
DAV:   1    -0.242731060429E+02   -0.20246E-06   -0.48095E-06   400   0.143E-02    0.217E-03
DAV:   2    -0.242731059696E+02    0.73378E-07   -0.71844E-07   400   0.380E-03
  30 F= -.24273106E+02 E0= -.24273106E+02  d E =0.110698E-06
       N       E                     dE             d eps       ncg     rms          rms(c)
DAV:   1    -0.242731060445E+02   -0.16172E-08   -0.15150E-07   240   0.247E-03    0.586E-04
DAV:   2    -0.242731060629E+02   -0.18378E-07   -0.18079E-08   192   0.809E-04
  31 F= -.24273106E+02 E0= -.24273106E+02  d E =0.173247E-07
       N       E                     dE             d eps       ncg     rms          rms(c)
DAV:   1    -0.242731060781E+02   -0.33586E-07   -0.81543E-10   192   0.215E-04    0.126E-04
DAV:   2    -0.242731060843E+02   -0.61343E-08   -0.10585E-10   192   0.798E-05
  32 F= -.24273106E+02 E0= -.24273106E+02  d E =-.401826E-08
       N       E                     dE             d eps       ncg     rms          rms(c)
DAV:   1    -0.242731060924E+02   -0.14253E-07   -0.10309E-09   192   0.215E-04    0.338E-05
DAV:   2    -0.242731060925E+02   -0.12665E-09   -0.10909E-10   192   0.693E-05
  33 F= -.24273106E+02 E0= -.24273106E+02  d E =-.122633E-07
       N       E                     dE             d eps       ncg     rms          rms(c)
DAV:   1    -0.242731060930E+02   -0.63505E-09   -0.44860E-11   192   0.459E-05    0.255E-05
DAV:   2    -0.242731060928E+02    0.17405E-09   -0.50993E-12   192   0.150E-05
  34 F= -.24273106E+02 E0= -.24273106E+02  d E =-.125976E-07
       N       E                     dE             d eps       ncg     rms          rms(c)
DAV:   1    -0.242731060928E+02    0.19622E-09   -0.33542E-12   192   0.117E-05    0.231E-05
DAV:   2    -0.242731060927E+02    0.11175E-09   -0.13868E-12   192   0.387E-06
  35 F= -.24273106E+02 E0= -.24273106E+02  d E =-.124637E-07
       N       E                     dE             d eps       ncg     rms          rms(c)
DAV:   1    -0.242731060927E+02    0.17008E-09   -0.11346E-12   192   0.548E-06    0.225E-05
DAV:   2    -0.242731060926E+02    0.20918E-10    0.60777E-13   192   0.183E-06
  36 F= -.24273106E+02 E0= -.24273106E+02  d E =-.123845E-07
       N       E                     dE             d eps       ncg     rms          rms(c)
DAV:   1    -0.242731060926E+02    0.20918E-10   -0.33918E-13   192   0.317E-06    0.224E-05
DAV:   2    -0.242731060926E+02    0.23419E-10   -0.11677E-12   192   0.108E-06
  37 F= -.24273106E+02 E0= -.24273106E+02  d E =-.123611E-07
       N       E                     dE             d eps       ncg     rms          rms(c)
DAV:   1    -0.242731060926E+02    0.35925E-10    0.63327E-13   192   0.172E-06    0.224E-05
DAV:   2    -0.242731060926E+02   -0.55707E-11    0.85025E-13   192   0.571E-07
  38 F= -.24273106E+02 E0= -.24273106E+02  d E =-.123541E-07
       N       E                     dE             d eps       ncg     rms          rms(c)
DAV:   1    -0.242731060926E+02   -0.44338E-11   -0.17822E-12   192   0.697E-07    0.224E-05
DAV:   2    -0.242731060926E+02    0.26148E-11   -0.98255E-13   192   0.233E-07
  39 F= -.24273106E+02 E0= -.24273106E+02  d E =-.123504E-07
       N       E                     dE             d eps       ncg     rms          rms(c)
DAV:   1    -0.242731060926E+02   -0.18190E-11    0.13278E-12   192   0.532E-07    0.224E-05
DAV:   2    -0.242731060926E+02   -0.25011E-11    0.67119E-13   192   0.179E-07
  40 F= -.24273106E+02 E0= -.24273106E+02  d E =-.123573E-07
       N       E                     dE             d eps       ncg     rms          rms(c)
DAV:   1    -0.242731060926E+02   -0.71623E-11   -0.89950E-13   192   0.151E-07    0.224E-05
DAV:   2    -0.242731060926E+02    0.36380E-11   -0.19377E-12   192   0.505E-08
  41 F= -.24273106E+02 E0= -.24273106E+02  d E =-.123583E-07
       N       E                     dE             d eps       ncg     rms          rms(c)
DAV:   1    -0.242731060926E+02    0.45475E-11    0.22067E-13   192   0.510E-08    0.224E-05
DAV:   2    -0.242731060926E+02   -0.22737E-12   -0.88077E-14   192   0.170E-08
  42 F= -.24273106E+02 E0= -.24273106E+02  d E =-.123576E-07
       N       E                     dE             d eps       ncg     rms          rms(c)
DAV:   1    -0.242731060926E+02    0.34106E-11    0.40380E-13   192   0.158E-08    0.224E-05
DAV:   2    -0.242731060926E+02    0.27285E-11    0.46976E-13   192   0.545E-09
  43 F= -.24273106E+02 E0= -.24273106E+02  d E =-.123513E-07
       N       E                     dE             d eps       ncg     rms          rms(c)
DAV:   1    -0.242731060926E+02    0.43201E-11   -0.11426E-13   192   0.116E-08    0.224E-05
DAV:   2    -0.242731060926E+02    0.20464E-11   -0.49865E-13   192   0.408E-09
  44 F= -.24273106E+02 E0= -.24273106E+02  d E =-.123476E-07
       N       E                     dE             d eps       ncg     rms          rms(c)
DAV:   1    -0.242731060926E+02   -0.45475E-12   -0.82484E-13   192   0.471E-09    0.224E-05
DAV:   2    -0.242731060926E+02   -0.34106E-12    0.19561E-12   192   0.155E-09
  45 F= -.24273106E+02 E0= -.24273106E+02  d E =-.123505E-07
       N       E                     dE             d eps       ncg     rms          rms(c)
DAV:   1    -0.242731060926E+02   -0.15916E-11   -0.26691E-13   192   0.237E-09    0.224E-05
DAV:   2    -0.242731060926E+02    0.40927E-11   -0.12746E-12   192   0.820E-10
  46 F= -.24273106E+02 E0= -.24273106E+02  d E =-.123476E-07
       N       E                     dE             d eps       ncg     rms          rms(c)
DAV:   1    -0.242731060854E+02    0.72303E-08   -0.18475E-08   192   0.890E-04    0.143E-04
DAV:   2    -0.242731060887E+02   -0.33297E-08   -0.25321E-09   192   0.304E-04
  47 F= -.24273106E+02 E0= -.24273106E+02  d E =-.845114E-08
