 vasp.5.3.3.4 18Dez12 (build Jun 09 2015 23:14:47) complex                      
  
 executed on   half-orig-parallel date 2019.07.29  18:36:38
 running on   16 total cores
 distrk:  each k-point on   16 cores,    1 groups
 distr:  one band on NCORES_PER_BAND=   1 cores,   16 groups


--------------------------------------------------------------------------------------------------------


 INCAR:
 POTCAR:    PAW_PBE Ga 08Apr2002                  
 POTCAR:    PAW_PBE N 08Apr2002                   

 ----------------------------------------------------------------------------- 
|                                                                             |
|           W    W    AA    RRRRR   N    N  II  N    N   GGGG   !!!           |
|           W    W   A  A   R    R  NN   N  II  NN   N  G    G  !!!           |
|           W    W  A    A  R    R  N N  N  II  N N  N  G       !!!           |
|           W WW W  AAAAAA  RRRRR   N  N N  II  N  N N  G  GGG   !            |
|           WW  WW  A    A  R   R   N   NN  II  N   NN  G    G                |
|           W    W  A    A  R    R  N    N  II  N    N   GGGG   !!!           |
|                                                                             |
|      For optimal performance we recommend that you set                      |
|        NPAR = 4 - approx SQRT( number of cores)                             |
|      (number of cores/NPAR must be integer)                                 |
|      This setting will greatly improve the performance of VASP for DFT.     |
|      The default NPAR=number of cores might be grossly inefficient          |
|      on modern multi-core architectures or massively parallel machines.     |
|      Do your own testing.                                                   |
|      Unfortunately you need to use the default for hybrid, GW and RPA       |
|      calculations.                                                          |
|                                                                             |
 ----------------------------------------------------------------------------- 

 POTCAR:    PAW_PBE Ga 08Apr2002                  
   VRHFIN =Ga: s2p1                                                             
   LEXCH  = PE                                                                  
   EATOM  =    58.8688 eV,    4.3267 Ry                                         
                                                                                
   TITEL  = PAW_PBE Ga 08Apr2002                                                
   LULTRA =        F    use ultrasoft PP ?                                      
   IUNSCR =        1    unscreen: 0-lin 1-nonlin 2-no                           
   RPACOR =    2.170    partial core radius                                     
   POMASS =   69.723; ZVAL   =    3.000    mass and valenz                      
   RCORE  =    2.600    outmost cutoff radius                                   
   RWIGS  =    2.650; RWIGS  =    1.402    wigner-seitz radius (au A)           
   ENMAX  =  134.678; ENMIN  =  101.009 eV                                      
   ICORE  =        3    local potential                                         
   LCOR   =        T    correct aug charges                                     
   LPAW   =        T    paw PP                                                  
   EAUG   =  320.264                                                            
   DEXC   =    0.000                                                            
   RMAX   =    2.658    core radius for proj-oper                               
   RAUG   =    1.300    factor for augmentation sphere                          
   RDEP   =    2.684    radius for radial grids                                 
   RDEPT  =    2.308    core radius for aug-charge                              
                                                                                
   Atomic configuration                                                         
   10 entries                                                                   
     n  l   j            E        occ.                                          
     1  0  0.50    -10228.7830   2.0000                                         
     2  0  0.50     -1262.1604   2.0000                                         
     2  1  1.50     -1098.6333   6.0000                                         
     3  0  0.50      -148.1110   2.0000                                         
     3  1  1.50       -98.8436   6.0000                                         
     3  2  2.50       -19.1549  10.0000                                         
     4  0  0.50        -8.9483   2.0000                                         
     4  1  0.50        -2.5791   1.0000                                         
     4  2  1.50         5.4423   0.0000                                         
     4  3  2.50        -2.7416   0.0000                                         
   Description                                                                  
     l       E           TYP  RCUT    TYP  RCUT                                 
     0     -8.9483097     23  2.600                                             
     0     -5.8232215     23  2.600                                             
     1     -2.5790793     23  2.600                                             
     1      5.2230115     23  2.600                                             
     2      1.3605826     23  2.600                                             
     3     -1.3605826      7  2.600                                             
  local pseudopotential read in
  partial core-charges read in
  partial kinetic energy density read in
  atomic valenz-charges read in
  non local Contribution for L=           0  read in
    real space projection operators read in
  non local Contribution for L=           0  read in
    real space projection operators read in
  non local Contribution for L=           1  read in
    real space projection operators read in
  non local Contribution for L=           1  read in
    real space projection operators read in
  non local Contribution for L=           2  read in
    real space projection operators read in
    PAW grid and wavefunctions read in
 
   number of l-projection  operators is LMAX  =           5
   number of lm-projection operators is LMMAX =          13
 
 POTCAR:    PAW_PBE N 08Apr2002                   
   VRHFIN =N: s2p3                                                              
   LEXCH  = PE                                                                  
   EATOM  =   264.5486 eV,   19.4438 Ry                                         
                                                                                
   TITEL  = PAW_PBE N 08Apr2002                                                 
   LULTRA =        F    use ultrasoft PP ?                                      
   IUNSCR =        1    unscreen: 0-lin 1-nonlin 2-no                           
   RPACOR =    1.200    partial core radius                                     
   POMASS =   14.001; ZVAL   =    5.000    mass and valenz                      
   RCORE  =    1.500    outmost cutoff radius                                   
   RWIGS  =    1.400; RWIGS  =    0.741    wigner-seitz radius (au A)           
   ENMAX  =  400.000; ENMIN  =  300.000 eV                                      
   ICORE  =        2    local potential                                         
   LCOR   =        T    correct aug charges                                     
   LPAW   =        T    paw PP                                                  
   EAUG   =  627.112                                                            
   DEXC   =    0.000                                                            
   RMAX   =    1.529    core radius for proj-oper                               
   RAUG   =    1.300    factor for augmentation sphere                          
   RDEP   =    1.514    radius for radial grids                                 
   RDEPT  =    1.338    core radius for aug-charge                              
                                                                                
   Atomic configuration                                                         
    4 entries                                                                   
     n  l   j            E        occ.                                          
     1  0  0.50      -384.7179   2.0000                                         
     2  0  0.50       -18.5828   2.0000                                         
     2  1  0.50        -7.0898   3.0000                                         
     3  2  1.50        -6.8029   0.0000                                         
   Description                                                                  
     l       E           TYP  RCUT    TYP  RCUT                                 
     0    -18.5828119     23  1.200                                             
     0    -13.5018863     23  1.200                                             
     1     -7.0897853     23  1.500                                             
     1      9.5240782     23  1.500                                             
     2     -6.8029130      7  1.500                                             
  local pseudopotential read in
  partial core-charges read in
  partial kinetic energy density read in
  atomic valenz-charges read in
  non local Contribution for L=           0  read in
    real space projection operators read in
  non local Contribution for L=           0  read in
    real space projection operators read in
  non local Contribution for L=           1  read in
    real space projection operators read in
  non local Contribution for L=           1  read in
    real space projection operators read in
    PAW grid and wavefunctions read in
 
   number of l-projection  operators is LMAX  =           4
   number of lm-projection operators is LMMAX =           8
 

 ----------------------------------------------------------------------------- 
|                                                                             |
|  ADVICE TO THIS USER RUNNING 'VASP/VAMP'   (HEAR YOUR MASTER'S VOICE ...):  |
|                                                                             |
|      You have a (more or less) 'small supercell' and for smaller cells      |
|      it is recommended  to use the reciprocal-space projection scheme!      |
|      The real space optimization is not  efficient for small cells and it   |
|      is also less accurate ...                                              |
|      Therefore set LREAL=.FALSE. in the  INCAR file                         |
|                                                                             |
 ----------------------------------------------------------------------------- 

 Optimization of the real space projectors (new method)

 maximal supplied QI-value         = 14.36
 optimisation between [QCUT,QGAM] = [ 11.63, 23.27] = [ 37.90,151.59] Ry 
 Optimized for a Real-space Cutoff    1.45 Angstroem

   l    n(q)    QCUT    max X(q) W(low)/X(q) W(high)/X(q)  e(spline) 
   0     10    11.633    81.156    0.45E-04    0.40E-04    0.68E-07
   0     10    11.633    65.205    0.45E-04    0.41E-04    0.69E-07
   1     10    11.633    44.874    0.91E-04    0.10E-04    0.15E-06
   1     10    11.633    25.010    0.94E-04    0.11E-04    0.16E-06
   2      9    11.633     5.217    0.62E-04    0.71E-04    0.59E-07
 Optimization of the real space projectors (new method)

 maximal supplied QI-value         = 25.13
 optimisation between [QCUT,QGAM] = [ 11.56, 23.12] = [ 37.43,149.72] Ry 
 Optimized for a Real-space Cutoff    1.40 Angstroem

   l    n(q)    QCUT    max X(q) W(low)/X(q) W(high)/X(q)  e(spline) 
   0     10    11.561    79.467    0.46E-04    0.78E-04    0.61E-06
   0     10    11.561    66.151    0.45E-04    0.77E-04    0.61E-06
   1      9    11.561    18.886    0.22E-03    0.13E-03    0.12E-05
   1      9    11.561    13.488    0.23E-03    0.13E-03    0.12E-05
  PAW_PBE Ga 08Apr2002                  :
 energy of atom  1       EATOM=  -58.8688
 kinetic energy error for atom=    0.0000 (will be added to EATOM!!)
  PAW_PBE N 08Apr2002                   :
 energy of atom  2       EATOM= -264.5486
 kinetic energy error for atom=    0.0125 (will be added to EATOM!!)
 
 
 POSCAR: Ga  N                                   
  positions in cartesian coordinates
  No initial velocities read in
 exchange correlation table for  LEXCH =        8
   RHO(1)=    0.500       N(1)  =     2000
   RHO(2)=  100.500       N(2)  =     4000
 


--------------------------------------------------------------------------------------------------------


 ion  position               nearest neighbor table
   1  0.333  0.667  0.999-   4 1.94   4 1.94   4 1.94   3 1.95   2 3.17   2 3.17   2 3.17   2 3.17
                             2 3.17   2 3.17
   2  0.667  0.333  0.499-   3 1.94   3 1.94   3 1.94   4 1.95   1 3.17   1 3.17   1 3.17   1 3.17
                             1 3.17   1 3.17
   3  0.333  0.667  0.376-   2 1.94   2 1.94   2 1.94   1 1.95
   4  0.667  0.333  0.876-   1 1.94   1 1.94   1 1.94   2 1.95
 
  LATTYP: Found a hexagonal cell.
 ALAT       =     3.1722757184
 C/A-ratio  =     1.6291944391
  
  Lattice vectors:
  
 A1 = (   3.1722755868,   0.0000000000,   0.0000000000)
 A2 = (  -1.5861377934,   2.7472713979,   0.0000000000)
 A3 = (   0.0000000000,   0.0000000000,   5.1682539597)


Analysis of symmetry for initial positions (statically):
=====================================================================
 Subroutine PRICEL returns:
 Original cell was already a primitive cell.
 

 Routine SETGRP: Setting up the symmetry group for a 
 hexagonal supercell.


 Subroutine GETGRP returns: Found 12 space group operations
 (whereof  6 operations were pure point group operations)
 out of a pool of 24 trial point group operations.


The static configuration has the point symmetry C_3v.
 The point group associated with its full space group is C_6v.


Analysis of symmetry for dynamics (positions and initial velocities):
=====================================================================
 Subroutine PRICEL returns:
 Original cell was already a primitive cell.
 

 Routine SETGRP: Setting up the symmetry group for a 
 hexagonal supercell.


 Subroutine GETGRP returns: Found 12 space group operations
 (whereof  6 operations were pure point group operations)
 out of a pool of 24 trial point group operations.


The dynamic configuration has the point symmetry C_3v.
 The point group associated with its full space group is C_6v.


 irot  :   1
 --------------------------------------------------------------------
 isymop:   1   0   0
           0   1   0
           0   0   1

 gtrans:     0.0000000     0.0000000     0.0000000

 ptrans:     0.0000000     0.0000000     0.0000000
 rotmap:
 (   1->   1)  (   2->   2)  (   3->   3)  (   4->   4) 


 irot  :   2
 --------------------------------------------------------------------
 isymop:   0  -1   0
           1  -1   0
           0   0   1

 gtrans:     0.0000000     0.0000000     0.0000000

 ptrans:     0.0000000     0.0000000     0.0000000
 rotmap:
 (   1->   1)  (   2->   2)  (   3->   3)  (   4->   4) 


 irot  :   3
 --------------------------------------------------------------------
 isymop:  -1   1   0
          -1   0   0
           0   0   1

 gtrans:     0.0000000     0.0000000     0.0000000

 ptrans:     0.0000000     0.0000000     0.0000000
 rotmap:
 (   1->   1)  (   2->   2)  (   3->   3)  (   4->   4) 


 irot  :   4
 --------------------------------------------------------------------
 isymop:  -1   1   0
           0   1   0
           0   0   1

 gtrans:     0.0000000     0.0000000     0.0000000

 ptrans:     0.0000000     0.0000000     0.0000000
 rotmap:
 (   1->   1)  (   2->   2)  (   3->   3)  (   4->   4) 


 irot  :   5
 --------------------------------------------------------------------
 isymop:   1   0   0
           1  -1   0
           0   0   1

 gtrans:     0.0000000     0.0000000     0.0000000

 ptrans:     0.0000000     0.0000000     0.0000000
 rotmap:
 (   1->   1)  (   2->   2)  (   3->   3)  (   4->   4) 


 irot  :   6
 --------------------------------------------------------------------
 isymop:   0  -1   0
          -1   0   0
           0   0   1

 gtrans:     0.0000000     0.0000000     0.0000000

 ptrans:     0.0000000     0.0000000     0.0000000
 rotmap:
 (   1->   1)  (   2->   2)  (   3->   3)  (   4->   4) 


 irot  :   7
 --------------------------------------------------------------------
 isymop:   1  -1   0
           1   0   0
           0   0   1

 gtrans:     0.0000010     0.0000000     0.5000000

 ptrans:     0.0000000     0.0000000     0.0000000
 rotmap:
 (   1->   2)  (   2->   1)  (   3->   4)  (   4->   3) 


 irot  :   8
 --------------------------------------------------------------------
 isymop:  -1   0   0
           0  -1   0
           0   0   1

 gtrans:     0.0000000     0.0000000     0.5000000

 ptrans:     0.0000000     0.0000000     0.0000000
 rotmap:
 (   1->   2)  (   2->   1)  (   3->   4)  (   4->   3) 


 irot  :   9
 --------------------------------------------------------------------
 isymop:   0   1   0
          -1   1   0
           0   0   1

 gtrans:     0.0000000     0.0000000     0.5000000

 ptrans:     0.0000000     0.0000000     0.0000000
 rotmap:
 (   1->   2)  (   2->   1)  (   3->   4)  (   4->   3) 


 irot  :  10
 --------------------------------------------------------------------
 isymop:   0   1   0
           1   0   0
           0   0   1

 gtrans:     0.0000000     0.0000000     0.5000000

 ptrans:     0.0000000     0.0000000     0.0000000
 rotmap:
 (   1->   2)  (   2->   1)  (   3->   4)  (   4->   3) 


 irot  :  11
 --------------------------------------------------------------------
 isymop:   1  -1   0
           0  -1   0
           0   0   1

 gtrans:     0.0000010     0.0000000     0.5000000

 ptrans:     0.0000000     0.0000000     0.0000000
 rotmap:
 (   1->   2)  (   2->   1)  (   3->   4)  (   4->   3) 


 irot  :  12
 --------------------------------------------------------------------
 isymop:  -1   0   0
          -1   1   0
           0   0   1

 gtrans:     0.0000000     0.0000000     0.5000000

 ptrans:     0.0000000     0.0000000     0.0000000
 rotmap:
 (   1->   2)  (   2->   1)  (   3->   4)  (   4->   3) 
 
 
 KPOINTS: KPOINTS created by Atomic Simulation Env

Automatic generation of k-mesh.
Space group operators:
 irot       det(A)        alpha          n_x          n_y          n_z        tau_x        tau_y        tau_z
    1     1.000000     0.000000     1.000000     0.000000     0.000000     0.000000     0.000000     0.000000
    2     1.000000   120.000000     0.000000     0.000000    -1.000000     0.000000     0.000000     0.000000
    3     1.000000   120.000000     0.000000     0.000000     1.000000     0.000000     0.000000     0.000000
    4    -1.000000   180.000000     1.000000     0.000000     0.000000     0.000000     0.000000     0.000000
    5    -1.000000   180.000000     0.500000    -0.866025     0.000000     0.000000     0.000000     0.000000
    6    -1.000000   180.000000    -0.500000    -0.866025     0.000000     0.000000     0.000000     0.000000
    7     1.000000    60.000000     0.000000     0.000000    -1.000000     0.000001     0.000000     0.500000
    8     1.000000   180.000000     0.000000     0.000000     1.000000     0.000000     0.000000     0.500000
    9     1.000000    60.000000     0.000000     0.000000     1.000000     0.000000     0.000000     0.500000
   10    -1.000000   180.000000     0.866025    -0.500000     0.000000     0.000000     0.000000     0.500000
   11    -1.000000   180.000000     0.000000     1.000000     0.000000     0.000001     0.000000     0.500000
   12    -1.000000   180.000000     0.866025     0.500000     0.000000     0.000000     0.000000     0.500000
 
 Subroutine IBZKPT returns following result:
 ===========================================
 
 Found     12 irreducible k-points:
 
 Following reciprocal coordinates:
            Coordinates               Weight
  0.000000  0.000000  0.000000      1.000000
  0.250000  0.000000  0.000000      6.000000
  0.500000  0.000000  0.000000      3.000000
  0.250000  0.250000  0.000000      6.000000
  0.000000  0.000000  0.250000      2.000000
  0.250000  0.000000  0.250000     12.000000
  0.500000  0.000000  0.250000      6.000000
  0.250000  0.250000  0.250000     12.000000
  0.000000  0.000000  0.500000      1.000000
  0.250000  0.000000  0.500000      6.000000
  0.500000  0.000000  0.500000      3.000000
  0.250000  0.250000  0.500000      6.000000
 
 Following cartesian coordinates:
            Coordinates               Weight
  0.000000  0.000000  0.000000      1.000000
  0.078808  0.045500  0.000000      6.000000
  0.157616  0.090999  0.000000      3.000000
  0.078808  0.136499  0.000000      6.000000
  0.000000  0.000000  0.048372      2.000000
  0.078808  0.045500  0.048372     12.000000
  0.157616  0.090999  0.048372      6.000000
  0.078808  0.136499  0.048372     12.000000
  0.000000  0.000000  0.096744      1.000000
  0.078808  0.045500  0.096744      6.000000
  0.157616  0.090999  0.096744      3.000000
  0.078808  0.136499  0.096744      6.000000
 
 TETIRR: Found     72 inequivalent tetrahedra from      384


--------------------------------------------------------------------------------------------------------




 Dimension of arrays:
   k-points           NKPTS =     12   k-points in BZ     NKDIM =     12   number of bands    NBANDS=     16
   number of dos      NEDOS =    301   number of ions     NIONS =      4
   non local maximal  LDIM  =      5   non local SUM 2l+1 LMDIM =     13
   total plane-waves  NPLWV =  23040
   max r-space proj   IRMAX =   6525   max aug-charges    IRDMAX=  36959
   dimension x,y,z NGX =    24 NGY =   24 NGZ =   40
   dimension x,y,z NGXF=    48 NGYF=   48 NGZF=   80
   support grid    NGXF=    48 NGYF=   48 NGZF=   80
   ions per type =               2   2
 NGX,Y,Z   is equivalent  to a cutoff of  12.58, 12.58, 12.87 a.u.
 NGXF,Y,Z  is equivalent  to a cutoff of  25.15, 25.15, 25.73 a.u.


 I would recommend the setting:
   dimension x,y,z NGX =    24 NGY =   24 NGZ =   38
 SYSTEM =  unknown system                          
 POSCAR =  Ga  N                                   

 Startparameter for this run:
   NWRITE =      2    write-flag & timer
   PREC   = accura    normal or accurate (medium, high low for compatibility)
   ISTART =      0    job   : 0-new  1-cont  2-samecut
   ICHARG =      1    charge: 1-file 2-atom 10-const
   ISPIN  =      1    spin polarized calculation?
   LNONCOLLINEAR =      F non collinear calculations
   LSORBIT =      F    spin-orbit coupling
   INIWAV =      1    electr: 0-lowe 1-rand  2-diag
   LASPH  =      F    aspherical Exc in radial PAW
   METAGGA=      F    non-selfconsistent MetaGGA calc.

 Electronic Relaxation 1
   ENCUT  =  520.0 eV  38.22 Ry    6.18 a.u.   5.90  5.90  9.61*2*pi/ulx,y,z
   ENINI  =  520.0     initial cutoff
   ENAUG  =  627.1 eV  augmentation charge cutoff
   NELM   =    100;   NELMIN=  2; NELMDL=  0     # of ELM steps 
   EDIFF  = 0.1E-03   stopping-criterion for ELM
   LREAL  =      T    real-space projection
   NLSPLINE    = F    spline interpolate recip. space projectors
   LCOMPAT=      F    compatible to vasp.4.4
   GGA_COMPAT  = T    GGA compatible to vasp.4.4-vasp.4.6
   LMAXPAW     = -100 max onsite density
   LMAXMIX     =    2 max onsite mixed and CHGCAR
   VOSKOWN=      0    Vosko Wilk Nusair interpolation
   ROPT   =   -0.00025  -0.00025
 Ionic relaxation
   EDIFFG = -.1E-05   stopping-criterion for IOM
   NSW    =     99    number of steps for IOM
   NBLOCK =      1;   KBLOCK =     99    inner block; outer block 
   IBRION =      2    ionic relax: 0-MD 1-quasi-New 2-CG
   NFREE  =      1    steps in history (QN), initial steepest desc. (CG)
   ISIF   =      3    stress and relaxation
   IWAVPR =     11    prediction:  0-non 1-charg 2-wave 3-comb
   ISYM   =      2    0-nonsym 1-usesym 2-fastsym
   LCORR  =      T    Harris-Foulkes like correction to forces

   POTIM  = 0.5000    time-step for ionic-motion
   TEIN   =    0.0    initial temperature
   TEBEG  =    0.0;   TEEND  =   0.0 temperature during run
   SMASS  =  -3.00    Nose mass-parameter (am)
   estimated Nose-frequenzy (Omega)   =  0.10E-29 period in steps =****** mass=  -0.230E-27a.u.
   SCALEE = 1.0000    scale energy and forces
   NPACO  =    256;   APACO  = 16.0  distance and # of slots for P.C.
   PSTRESS=    0.0 pullay stress

  Mass of Ions in am
   POMASS =  69.72 14.00
  Ionic Valenz
   ZVAL   =   3.00  5.00
  Atomic Wigner-Seitz radii
   RWIGS  =  -1.00 -1.00
  virtual crystal weights 
   VCA    =   1.00  1.00
   NELECT =      16.0000    total number of electrons
   NUPDOWN=      -1.0000    fix difference up-down

 DOS related values:
   EMIN   =  10.00;   EMAX   =-10.00  energy-range for DOS
   EFERMI =   0.00
   ISMEAR =    -5;   SIGMA  =   0.03  broadening in eV -4-tet -1-fermi 0-gaus

 Electronic relaxation 2 (details)
   IALGO  =     38    algorithm
   LDIAG  =      T    sub-space diagonalisation (order eigenvalues)
   LSUBROT=      T    optimize rotation matrix (better conditioning)
   TURBO    =      0    0=normal 1=particle mesh
   IRESTART =      0    0=no restart 2=restart with 2 vectors
   NREBOOT  =      0    no. of reboots
   NMIN     =      0    reboot dimension
   EREF     =   0.00    reference energy to select bands
   IMIX   =      4    mixing-type and parameters
     AMIX     =   0.40;   BMIX     =  1.00
     AMIX_MAG =   1.60;   BMIX_MAG =  1.00
     AMIN     =   0.10
     WC   =   100.;   INIMIX=   1;  MIXPRE=   1;  MAXMIX= -45

 Intra band minimization:
   WEIMIN = 0.0010     energy-eigenvalue tresh-hold
   EBREAK =  0.16E-08  absolut break condition
   DEPER  =   0.30     relativ break condition  

   TIME   =   0.40     timestep for ELM

  volume/ion in A,a.u.               =      11.26        75.99
  Fermi-wavevector in a.u.,A,eV,Ry     =   1.159425  2.190996 18.289859  1.344267
  Thomas-Fermi vector in A             =   2.296018
 
 Write flags
   LWAVE  =      F    write WAVECAR
   LCHARG =      T    write CHGCAR
   LVTOT  =      F    write LOCPOT, total local potential
   LVHAR  =      F    write LOCPOT, Hartree potential only
   LELF   =      F    write electronic localiz. function (ELF)
   LORBIT =     11    0 simple, 1 ext, 2 COOP (PROOUT)


 Dipole corrections
   LMONO  =      F    monopole corrections only (constant potential shift)
   LDIPOL =      F    correct potential (dipole corrections)
   IDIPOL =      0    1-x, 2-y, 3-z, 4-all directions 
   EPSILON=  1.0000000 bulk dielectric constant

 Exchange correlation treatment:
   GGA     =    PE    GGA type
   LEXCH   =     8    internal setting for exchange type
   VOSKOWN=      0    Vosko Wilk Nusair interpolation
   LHFCALC =     F    Hartree Fock is set to
   LHFONE  =     F    Hartree Fock one center treatment
   AEXX    =    0.0000 exact exchange contribution

 Linear response parameters
   LEPSILON=     F    determine dielectric tensor
   LRPA    =     F    only Hartree local field effects (RPA)
   LNABLA  =     F    use nabla operator in PAW spheres
   LVEL    =     F    velocity operator in full k-point grid
   LINTERFAST=   F  fast interpolation
   KINTER  =     0    interpolate to denser k-point grid
   CSHIFT  =0.1000    complex shift for real part using Kramers Kronig
   OMEGAMAX=  -1.0    maximum frequency
   DEG_THRESHOLD= 0.2000000E-02 threshold for treating states as degnerate
   RTIME   =    0.100 relaxation time in fs

 Orbital magnetization related:
   ORBITALMAG=     F  switch on orbital magnetization
   LCHIMAG   =     F  perturbation theory with respect to B field
   DQ        =  0.001000  dq finite difference perturbation B field



--------------------------------------------------------------------------------------------------------


 conjugate gradient relaxation of ions
 charge density and potential will be updated during run
 non-spin polarized calculation
 Variant of blocked Davidson
 Davidson routine will perform the subspace rotation
 perform sub-space diagonalisation
    after iterative eigenvector-optimisation
 modified Broyden-mixing scheme, WC =      100.0
 initial mixing is a Kerker type mixing with AMIX =  0.4000 and BMIX =      1.0000
 Hartree-type preconditioning will be used
 using additional bands            8
 real space projection scheme for non local part
 use partial core corrections
 calculate Harris-corrections to forces 
   (improved forces if not selfconsistent)
 use gradient corrections 
 use of overlap-Matrix (Vanderbilt PP)
 Fermi weights with tetrahedron method with Bloechl corrections


--------------------------------------------------------------------------------------------------------


  energy-cutoff  :      520.00
  volume of cell :       45.04
      direct lattice vectors                 reciprocal lattice vectors
     3.172275587  0.000000000  0.000000000     0.315231124  0.181998764  0.000000000
    -1.586137793  2.747271398  0.000000000     0.000000000  0.363997529  0.000000000
     0.000000000  0.000000000  5.168253960     0.000000000  0.000000000  0.193488944

  length of vectors
     3.172275587  3.172275718  5.168253960     0.363997544  0.363997529  0.193488944


 
 k-points in units of 2pi/SCALE and weight: KPOINTS created by Atomic Simulation Env
   0.00000000  0.00000000  0.00000000       0.016
   0.07880778  0.04549969  0.00000000       0.094
   0.15761556  0.09099938  0.00000000       0.047
   0.07880778  0.13649907  0.00000000       0.094
   0.00000000  0.00000000  0.04837224       0.031
   0.07880778  0.04549969  0.04837224       0.188
   0.15761556  0.09099938  0.04837224       0.094
   0.07880778  0.13649907  0.04837224       0.188
   0.00000000  0.00000000  0.09674447       0.016
   0.07880778  0.04549969  0.09674447       0.094
   0.15761556  0.09099938  0.09674447       0.047
   0.07880778  0.13649907  0.09674447       0.094
 
 k-points in reciprocal lattice and weights: KPOINTS created by Atomic Simulation Env
   0.00000000  0.00000000  0.00000000       0.016
   0.25000000  0.00000000  0.00000000       0.094
   0.50000000  0.00000000  0.00000000       0.047
   0.25000000  0.25000000  0.00000000       0.094
   0.00000000  0.00000000  0.25000000       0.031
   0.25000000  0.00000000  0.25000000       0.188
   0.50000000  0.00000000  0.25000000       0.094
   0.25000000  0.25000000  0.25000000       0.188
   0.00000000  0.00000000  0.50000000       0.016
   0.25000000  0.00000000  0.50000000       0.094
   0.50000000  0.00000000  0.50000000       0.047
   0.25000000  0.25000000  0.50000000       0.094
 
 position of ions in fractional coordinates (direct lattice) 
   0.33333300  0.66666700  0.99893068
   0.66666700  0.33333300  0.49893068
   0.33333300  0.66666700  0.37606932
   0.66666700  0.33333300  0.87606932
 
 position of ions in cartesian coordinates  (Angst):
  -0.00000159  1.83151518  5.16272742
   1.58613938  0.91575622  2.57860044
  -0.00000159  1.83151518  1.94362177
   1.58613938  0.91575622  4.52774875
 


--------------------------------------------------------------------------------------------------------


 k-point  1 :   0.0000 0.0000 0.0000  plane waves:    1213
 k-point  2 :   0.2500 0.0000 0.0000  plane waves:    1212
 k-point  3 :   0.5000 0.0000 0.0000  plane waves:    1224
 k-point  4 :   0.2500 0.2500 0.0000  plane waves:    1220
 k-point  5 :   0.0000 0.0000 0.2500  plane waves:    1201
 k-point  6 :   0.2500 0.0000 0.2500  plane waves:    1206
 k-point  7 :   0.5000 0.0000 0.2500  plane waves:    1214
 k-point  8 :   0.2500 0.2500 0.2500  plane waves:    1219
 k-point  9 :   0.0000 0.0000 0.5000  plane waves:    1196
 k-point 10 :   0.2500 0.0000 0.5000  plane waves:    1204
 k-point 11 :   0.5000 0.0000 0.5000  plane waves:    1212
 k-point 12 :   0.2500 0.2500 0.5000  plane waves:    1218

 maximum and minimum number of plane-waves per node :      1224     1196

 maximum number of plane-waves:      1224
 maximum index in each direction: 
   IXMAX=    5   IYMAX=    5   IZMAX=    9
   IXMIN=   -6   IYMIN=   -6   IZMIN=  -10

 NGX is ok and might be reduce to  24
 NGY is ok and might be reduce to  24
 NGZ is ok and might be reduce to  40

 serial   3D FFT for wavefunctions
 parallel 3D FFT for charge:
    minimum data exchange during FFTs selected (reduces bandwidth)


 total amount of memory used by VASP on root node    35044. kBytes
========================================================================

   base      :      30000. kBytes
   nonlr-proj:       2687. kBytes
   fftplans  :        493. kBytes
   grid      :       1587. kBytes
   one-center:         32. kBytes
   wavefun   :        245. kBytes
 
 Broyden mixing: mesh for mixing (old mesh)
   NGX = 11   NGY = 11   NGZ = 19
  (NGX  = 48   NGY  = 48   NGZ  = 80)
  gives a total of   2299 points

 initial charge density was supplied:
 number of electron      16.0000001 magnetization 
 keeping initial charge density in first step


--------------------------------------------------------------------------------------------------------


 Maximum index for non-local projection operator         6281
 Maximum index for augmentation-charges         2371 (set IRDMAX)


--------------------------------------------------------------------------------------------------------


 First call to EWALD:  gamma=   0.498
 Maximum number of real-space cells 3x 3x 2
 Maximum number of reciprocal cells 3x 3x 4

 FEWALD executed in parallel
    FEWALD:  cpu time    0.00: real time    0.00


----------------------------------------- Iteration    1(   1)  ---------------------------------------


    POTLOK:  cpu time    0.01: real time    0.01
    SETDIJ:  cpu time    0.01: real time    0.01
     EDDAV:  cpu time    0.12: real time    0.12
 BZINTS: Fermi energy: 11.214960; 16.000000 electrons
         Band energy:  17.060111;  BLOECHL correction: -0.065127
       DOS:  cpu time    0.00: real time    0.00
    --------------------------------------------
      LOOP:  cpu time    0.13: real time    0.14

 eigenvalue-minimisations  :   384
 total energy-change (2. order) : 0.2992193E+02  (-0.8038986E+03)
 number of electron      16.0000001 magnetization 
 augmentation part       16.0000001 magnetization 

 Free energy of the ion-electron system (eV)
  ---------------------------------------------------
  alpha Z        PSCENC =        57.55312476
  Ewald energy   TEWEN  =      -577.22471687
  -1/2 Hartree   DENC   =      -162.65785581
  -exchange  EXHF       =         0.00000000
  -V(xc)+E(xc)   XCENC  =         4.63961861
  PAW double counting   =      1638.92043144    -1595.17843245
  entropy T*S    EENTRO =         0.00000000
  eigenvalues    EBANDS =        17.06011119
  atomic energy  EATOM  =       646.80964955
  ---------------------------------------------------
  free energy    TOTEN  =        29.92193042 eV

  energy without entropy =       29.92193042  energy(sigma->0) =       29.92193042


--------------------------------------------------------------------------------------------------------




----------------------------------------- Iteration    1(   2)  ---------------------------------------


     EDDAV:  cpu time    0.18: real time    0.18
 BZINTS: Fermi energy:  3.726003; 16.000000 electrons
         Band energy: -36.610580;  BLOECHL correction:  0.000000
       DOS:  cpu time    0.00: real time    0.00
    --------------------------------------------
      LOOP:  cpu time    0.18: real time    0.18

 eigenvalue-minimisations  :   640
 total energy-change (2. order) :-0.5367069E+02  (-0.5360084E+02)
 number of electron      16.0000001 magnetization 
 augmentation part       16.0000001 magnetization 

 Free energy of the ion-electron system (eV)
  ---------------------------------------------------
  alpha Z        PSCENC =        57.55312476
  Ewald energy   TEWEN  =      -577.22471687
  -1/2 Hartree   DENC   =      -162.65785581
  -exchange  EXHF       =         0.00000000
  -V(xc)+E(xc)   XCENC  =         4.63961861
  PAW double counting   =      1638.92043144    -1595.17843245
  entropy T*S    EENTRO =         0.00000000
  eigenvalues    EBANDS =       -36.61057974
  atomic energy  EATOM  =       646.80964955
  ---------------------------------------------------
  free energy    TOTEN  =       -23.74876051 eV

  energy without entropy =      -23.74876051  energy(sigma->0) =      -23.74876051


--------------------------------------------------------------------------------------------------------




----------------------------------------- Iteration    1(   3)  ---------------------------------------


     EDDAV:  cpu time    0.11: real time    0.11
 BZINTS: Fermi energy:  3.755565; 16.000000 electrons
         Band energy: -37.220588;  BLOECHL correction:  0.000000
       DOS:  cpu time    0.00: real time    0.00
    --------------------------------------------
      LOOP:  cpu time    0.11: real time    0.12

 eigenvalue-minimisations  :   384
 total energy-change (2. order) :-0.6100086E+00  (-0.6100086E+00)
 number of electron      16.0000001 magnetization 
 augmentation part       16.0000001 magnetization 

 Free energy of the ion-electron system (eV)
  ---------------------------------------------------
  alpha Z        PSCENC =        57.55312476
  Ewald energy   TEWEN  =      -577.22471687
  -1/2 Hartree   DENC   =      -162.65785581
  -exchange  EXHF       =         0.00000000
  -V(xc)+E(xc)   XCENC  =         4.63961861
  PAW double counting   =      1638.92043144    -1595.17843245
  entropy T*S    EENTRO =         0.00000000
  eigenvalues    EBANDS =       -37.22058832
  atomic energy  EATOM  =       646.80964955
  ---------------------------------------------------
  free energy    TOTEN  =       -24.35876909 eV

  energy without entropy =      -24.35876909  energy(sigma->0) =      -24.35876909


--------------------------------------------------------------------------------------------------------




----------------------------------------- Iteration    1(   4)  ---------------------------------------


     EDDAV:  cpu time    0.18: real time    0.18
 BZINTS: Fermi energy:  3.725858; 16.000000 electrons
         Band energy: -37.222018;  BLOECHL correction:  0.000000
       DOS:  cpu time    0.00: real time    0.00
    --------------------------------------------
      LOOP:  cpu time    0.18: real time    0.18

 eigenvalue-minimisations  :   640
 total energy-change (2. order) :-0.1429761E-02  (-0.1429761E-02)
 number of electron      16.0000001 magnetization 
 augmentation part       16.0000001 magnetization 

 Free energy of the ion-electron system (eV)
  ---------------------------------------------------
  alpha Z        PSCENC =        57.55312476
  Ewald energy   TEWEN  =      -577.22471687
  -1/2 Hartree   DENC   =      -162.65785581
  -exchange  EXHF       =         0.00000000
  -V(xc)+E(xc)   XCENC  =         4.63961861
  PAW double counting   =      1638.92043144    -1595.17843245
  entropy T*S    EENTRO =         0.00000000
  eigenvalues    EBANDS =       -37.22201808
  atomic energy  EATOM  =       646.80964955
  ---------------------------------------------------
  free energy    TOTEN  =       -24.36019885 eV

  energy without entropy =      -24.36019885  energy(sigma->0) =      -24.36019885


--------------------------------------------------------------------------------------------------------




----------------------------------------- Iteration    1(   5)  ---------------------------------------


     EDDAV:  cpu time    0.11: real time    0.11
 BZINTS: Fermi energy:  3.723201; 16.000000 electrons
         Band energy: -37.222018;  BLOECHL correction:  0.000000
       DOS:  cpu time    0.00: real time    0.00
    CHARGE:  cpu time    0.01: real time    0.01
    MIXING:  cpu time    0.00: real time    0.00
    --------------------------------------------
      LOOP:  cpu time    0.12: real time    0.13

 eigenvalue-minimisations  :   384
 total energy-change (2. order) :-0.2399003E-06  (-0.2399002E-06)
 number of electron      16.0000002 magnetization 
 augmentation part       -0.4995007 magnetization 

 Broyden mixing:
  rms(total) = 0.33497E+00    rms(broyden)= 0.33479E+00
  rms(prec ) = 0.57979E+00
  weight for this iteration     100.00

 Free energy of the ion-electron system (eV)
  ---------------------------------------------------
  alpha Z        PSCENC =        57.55312476
  Ewald energy   TEWEN  =      -577.22471687
  -1/2 Hartree   DENC   =      -162.65785581
  -exchange  EXHF       =         0.00000000
  -V(xc)+E(xc)   XCENC  =         4.63961861
  PAW double counting   =      1638.92043144    -1595.17843245
  entropy T*S    EENTRO =         0.00000000
  eigenvalues    EBANDS =       -37.22201832
  atomic energy  EATOM  =       646.80964955
  ---------------------------------------------------
  free energy    TOTEN  =       -24.36019909 eV

  energy without entropy =      -24.36019909  energy(sigma->0) =      -24.36019909


--------------------------------------------------------------------------------------------------------




----------------------------------------- Iteration    1(   6)  ---------------------------------------


    POTLOK:  cpu time    0.01: real time    0.01
    SETDIJ:  cpu time    0.00: real time    0.00
     EDDAV:  cpu time    0.12: real time    0.12
 BZINTS: Fermi energy:  3.152026; 16.000000 electrons
         Band energy: -43.488185;  BLOECHL correction:  0.000000
       DOS:  cpu time    0.00: real time    0.00
    CHARGE:  cpu time    0.01: real time    0.01
    MIXING:  cpu time    0.00: real time    0.00
    --------------------------------------------
      LOOP:  cpu time    0.13: real time    0.14

 eigenvalue-minimisations  :   400
 total energy-change (2. order) : 0.2172054E+00  (-0.1310020E+00)
 number of electron      16.0000002 magnetization 
 augmentation part       -0.4118793 magnetization 

 Broyden mixing:
  rms(total) = 0.87858E-01    rms(broyden)= 0.87838E-01
  rms(prec ) = 0.11412E+00
  weight for this iteration     100.00

 eigenvalues of (default mixing * dielectric matrix)
  average eigenvalue GAMMA=   1.1002
  1.1002

 Free energy of the ion-electron system (eV)
  ---------------------------------------------------
  alpha Z        PSCENC =        57.55312476
  Ewald energy   TEWEN  =      -577.22471687
  -1/2 Hartree   DENC   =      -155.60041591
  -exchange  EXHF       =         0.00000000
  -V(xc)+E(xc)   XCENC  =         4.13706539
  PAW double counting   =      1744.41770970    -1700.74722514
  entropy T*S    EENTRO =         0.00000000
  eigenvalues    EBANDS =       -43.48818518
  atomic energy  EATOM  =       646.80964955
  ---------------------------------------------------
  free energy    TOTEN  =       -24.14299372 eV

  energy without entropy =      -24.14299372  energy(sigma->0) =      -24.14299372


--------------------------------------------------------------------------------------------------------




----------------------------------------- Iteration    1(   7)  ---------------------------------------


    POTLOK:  cpu time    0.01: real time    0.01
    SETDIJ:  cpu time    0.00: real time    0.00
     EDDAV:  cpu time    0.12: real time    0.12
 BZINTS: Fermi energy:  3.149818; 16.000000 electrons
         Band energy: -43.413704;  BLOECHL correction:  0.000000
       DOS:  cpu time    0.00: real time    0.00
    CHARGE:  cpu time    0.01: real time    0.01
    MIXING:  cpu time    0.00: real time    0.00
    --------------------------------------------
      LOOP:  cpu time    0.14: real time    0.15

 eigenvalue-minimisations  :   416
 total energy-change (2. order) : 0.5628100E-02  (-0.1384391E-02)
 number of electron      16.0000002 magnetization 
 augmentation part       -0.4157634 magnetization 

 Broyden mixing:
  rms(total) = 0.47048E-01    rms(broyden)= 0.47046E-01
  rms(prec ) = 0.62183E-01
  weight for this iteration     100.00

 eigenvalues of (default mixing * dielectric matrix)
  average eigenvalue GAMMA=   1.3783
  1.0023  1.7543

 Free energy of the ion-electron system (eV)
  ---------------------------------------------------
  alpha Z        PSCENC =        57.55312476
  Ewald energy   TEWEN  =      -577.22471687
  -1/2 Hartree   DENC   =      -155.64551437
  -exchange  EXHF       =         0.00000000
  -V(xc)+E(xc)   XCENC  =         4.18155972
  PAW double counting   =      1810.02980590    -1766.42757017
  entropy T*S    EENTRO =         0.00000000
  eigenvalues    EBANDS =       -43.41370414
  atomic energy  EATOM  =       646.80964955
  ---------------------------------------------------
  free energy    TOTEN  =       -24.13736562 eV

  energy without entropy =      -24.13736562  energy(sigma->0) =      -24.13736562


--------------------------------------------------------------------------------------------------------




----------------------------------------- Iteration    1(   8)  ---------------------------------------


    POTLOK:  cpu time    0.01: real time    0.01
    SETDIJ:  cpu time    0.00: real time    0.00
     EDDAV:  cpu time    0.18: real time    0.18
 BZINTS: Fermi energy:  3.148259; 16.000000 electrons
         Band energy: -43.421679;  BLOECHL correction:  0.000000
       DOS:  cpu time    0.00: real time    0.00
    CHARGE:  cpu time    0.01: real time    0.01
    MIXING:  cpu time    0.00: real time    0.00
    --------------------------------------------
      LOOP:  cpu time    0.20: real time    0.21

 eigenvalue-minimisations  :   608
 total energy-change (2. order) : 0.3122757E-02  (-0.1962909E-03)
 number of electron      16.0000002 magnetization 
 augmentation part       -0.4199348 magnetization 

 Broyden mixing:
  rms(total) = 0.11487E-01    rms(broyden)= 0.11487E-01
  rms(prec ) = 0.14925E-01
  weight for this iteration     100.00

 eigenvalues of (default mixing * dielectric matrix)
  average eigenvalue GAMMA=   1.4750
  2.1344  1.0415  1.2491

 Free energy of the ion-electron system (eV)
  ---------------------------------------------------
  alpha Z        PSCENC =        57.55312476
  Ewald energy   TEWEN  =      -577.22471687
  -1/2 Hartree   DENC   =      -155.60492827
  -exchange  EXHF       =         0.00000000
  -V(xc)+E(xc)   XCENC  =         4.22347553
  PAW double counting   =      1869.87115964    -1826.34032834
  entropy T*S    EENTRO =         0.00000000
  eigenvalues    EBANDS =       -43.42167886
  atomic energy  EATOM  =       646.80964955
  ---------------------------------------------------
  free energy    TOTEN  =       -24.13424286 eV

  energy without entropy =      -24.13424286  energy(sigma->0) =      -24.13424286


--------------------------------------------------------------------------------------------------------




----------------------------------------- Iteration    1(   9)  ---------------------------------------


    POTLOK:  cpu time    0.01: real time    0.01
    SETDIJ:  cpu time    0.00: real time    0.00
     EDDAV:  cpu time    0.14: real time    0.14
 BZINTS: Fermi energy:  3.145154; 16.000000 electrons
         Band energy: -43.486875;  BLOECHL correction:  0.000000
       DOS:  cpu time    0.00: real time    0.00
    CHARGE:  cpu time    0.01: real time    0.01
    MIXING:  cpu time    0.00: real time    0.00
    --------------------------------------------
      LOOP:  cpu time    0.16: real time    0.16

 eigenvalue-minimisations  :   496
 total energy-change (2. order) : 0.1533597E-03  (-0.1678320E-04)
 number of electron      16.0000002 magnetization 
 augmentation part       -0.4201706 magnetization 

 Broyden mixing:
  rms(total) = 0.59106E-02    rms(broyden)= 0.59105E-02
  rms(prec ) = 0.61904E-02
  weight for this iteration     100.00

 eigenvalues of (default mixing * dielectric matrix)
  average eigenvalue GAMMA=   1.7697
  2.5418  2.5418  0.9975  0.9975

 Free energy of the ion-electron system (eV)
  ---------------------------------------------------
  alpha Z        PSCENC =        57.55312476
  Ewald energy   TEWEN  =      -577.22471687
  -1/2 Hartree   DENC   =      -155.52846417
  -exchange  EXHF       =         0.00000000
  -V(xc)+E(xc)   XCENC  =         4.22868445
  PAW double counting   =      1877.76851623    -1834.25400842
  entropy T*S    EENTRO =         0.00000000
  eigenvalues    EBANDS =       -43.48687503
  atomic energy  EATOM  =       646.80964955
  ---------------------------------------------------
  free energy    TOTEN  =       -24.13408950 eV

  energy without entropy =      -24.13408950  energy(sigma->0) =      -24.13408950


--------------------------------------------------------------------------------------------------------




----------------------------------------- Iteration    1(  10)  ---------------------------------------


    POTLOK:  cpu time    0.01: real time    0.01
    SETDIJ:  cpu time    0.00: real time    0.00
     EDDAV:  cpu time    0.14: real time    0.14
 BZINTS: Fermi energy:  3.144647; 16.000000 electrons
         Band energy: -43.487644;  BLOECHL correction:  0.000000
       DOS:  cpu time    0.00: real time    0.00
    --------------------------------------------
      LOOP:  cpu time    0.15: real time    0.16

 eigenvalue-minimisations  :   480
 total energy-change (2. order) :-0.2099578E-06  (-0.1236582E-05)
 number of electron      16.0000002 magnetization 
 augmentation part       -0.4201706 magnetization 

 Free energy of the ion-electron system (eV)
  ---------------------------------------------------
  alpha Z        PSCENC =        57.55312476
  Ewald energy   TEWEN  =      -577.22471687
  -1/2 Hartree   DENC   =      -155.52778791
  -exchange  EXHF       =         0.00000000
  -V(xc)+E(xc)   XCENC  =         4.23116110
  PAW double counting   =      1871.98715034    -1828.47502619
  entropy T*S    EENTRO =         0.00000000
  eigenvalues    EBANDS =       -43.48764449
  atomic energy  EATOM  =       646.80964955
  ---------------------------------------------------
  free energy    TOTEN  =       -24.13408971 eV

  energy without entropy =      -24.13408971  energy(sigma->0) =      -24.13408971


--------------------------------------------------------------------------------------------------------




 average (electrostatic) potential at core
  the test charge radii are     1.2767  0.7089
  (the norm of the test charge is              1.0000)
       1 -12.6810       2 -12.6810       3 -64.0755       4 -64.0755
 
 
 
 E-fermi :   3.1446     XC(G=0): -10.9233     alpha+bet :-11.2348


 k-point   1 :       0.0000    0.0000    0.0000
  band No.  band energies     occupation 
      1     -12.9018      2.00000
      2     -10.4878      2.00000
      3      -3.9473      2.00000
      4       2.0956      2.00000
      5       2.0957      2.00000
      6       3.0975      2.00000
      7       3.1317      2.00000
      8       3.1317      2.00000
      9       5.2117      0.00000
     10       7.5755      0.00000
     11      12.4667      0.00000
     12      13.2175      0.00000
     13      13.2175      0.00000
     14      14.0504      0.00000
     15      15.0419      0.00000
     16      15.0420      0.00000

 k-point   2 :       0.2500    0.0000    0.0000
  band No.  band energies     occupation 
      1     -12.0671      2.00000
      2      -9.9925      2.00000
      3      -3.1232      2.00000
      4      -0.9330      2.00000
      5       0.1947      2.00000
      6       1.1382      2.00000
      7       2.4206      2.00000
      8       2.6308      2.00000
      9       7.5695      0.00000
     10       9.2559      0.00000
     11      10.6373      0.00000
     12      11.8284      0.00000
     13      13.4665      0.00000
     14      14.0587      0.00000
     15      14.6872      0.00000
     16      16.0235      0.00000

 k-point   3 :       0.5000    0.0000    0.0000
  band No.  band energies     occupation 
      1     -10.6025      2.00000
      2      -9.7563      2.00000
      3      -3.3869      2.00000
      4      -2.1962      2.00000
      5      -1.0921      2.00000
      6       0.3909      2.00000
      7       0.8869      2.00000
      8       2.1286      2.00000
      9       8.3193      0.00000
     10       8.8641      0.00000
     11       9.2898      0.00000
     12      11.9406      0.00000
     13      13.6369      0.00000
     14      13.7041      0.00000
     15      15.6730      0.00000
     16      16.6761      0.00000

 k-point   4 :       0.2500    0.2500    0.0000
  band No.  band energies     occupation 
      1     -10.7322      2.00000
      2      -9.6312      2.00000
      3      -2.5685      2.00000
      4      -2.0842      2.00000
      5      -0.9913      2.00000
      6      -0.8259      2.00000
      7       0.9911      2.00000
      8       1.1991      2.00000
      9       8.9660      0.00000
     10       9.9804      0.00000
     11      11.0729      0.00000
     12      11.2487      0.00000
     13      12.8574      0.00000
     14      13.6679      0.00000
     15      14.3273      0.00000
     16      16.9729      0.00000

 k-point   5 :       0.0000    0.0000    0.2500
  band No.  band energies     occupation 
      1     -12.6547      2.00000
      2     -11.0169      2.00000
      3      -2.9714      2.00000
      4       1.5704      2.00000
      5       2.2400      2.00000
      6       2.2401      2.00000
      7       2.9728      2.00000
      8       2.9728      2.00000
      9       6.4037      0.00000
     10       7.6785      0.00000
     11      12.0773      0.00000
     12      12.8368      0.00000
     13      13.2982      0.00000
     14      13.2983      0.00000
     15      14.5220      0.00000
     16      14.5221      0.00000

 k-point   6 :       0.2500    0.0000    0.2500
  band No.  band energies     occupation 
      1     -11.8427      2.00000
      2     -10.4167      2.00000
      3      -2.5819      2.00000
      4      -0.6681      2.00000
      5      -0.1463      2.00000
      6       1.3317      2.00000
      7       2.2082      2.00000
      8       2.3821      2.00000
      9       7.6615      0.00000
     10       9.3340      0.00000
     11      10.5416      0.00000
     12      11.5678      0.00000
     13      13.1154      0.00000
     14      14.1739      0.00000
     15      14.3003      0.00000
     16      15.6772      0.00000

 k-point   7 :       0.5000    0.0000    0.2500
  band No.  band energies     occupation 
      1     -10.4785      2.00000
      2      -9.8739      2.00000
      3      -3.6430      2.00000
      4      -2.8021      2.00000
      5      -0.1820      2.00000
      6       0.6094      2.00000
      7       1.4302      2.00000
      8       1.8286      2.00000
      9       7.5571      0.00000
     10       8.3531      0.00000
     11      10.8651      0.00000
     12      11.1527      0.00000
     13      13.5857      0.00000
     14      14.0417      0.00000
     15      14.2532      0.00000
     16      16.8426      0.00000

 k-point   8 :       0.2500    0.2500    0.2500
  band No.  band energies     occupation 
      1     -10.5855      2.00000
      2      -9.8056      2.00000
      3      -2.9206      2.00000
      4      -2.3532      2.00000
      5      -0.8695      2.00000
      6       0.0223      2.00000
      7       0.5736      2.00000
      8       1.6815      2.00000
      9       9.2618      0.00000
     10       9.3681      0.00000
     11      11.1512      0.00000
     12      11.4450      0.00000
     13      12.3406      0.00000
     14      12.7614      0.00000
     15      14.9875      0.00000
     16      16.9653      0.00000

 k-point   9 :       0.0000    0.0000    0.5000
  band No.  band energies     occupation 
      1     -11.9566      2.00000
      2     -11.9566      2.00000
      3      -0.8085      2.00000
      4      -0.8085      2.00000
      5       2.5991      2.00000
      6       2.5991      2.00000
      7       2.5991      2.00000
      8       2.5991      2.00000
      9       7.5532      0.00000
     10       7.5532      0.00000
     11      11.7544      0.00000
     12      11.7544      0.00000
     13      13.7230      0.00000
     14      13.7230      0.00000
     15      13.7230      0.00000
     16      13.7230      0.00000

 k-point  10 :       0.2500    0.0000    0.5000
  band No.  band energies     occupation 
      1     -11.2195      2.00000
      2     -11.2195      2.00000
      3      -1.5453      2.00000
      4      -1.5453      2.00000
      5       1.0244      2.00000
      6       1.0244      2.00000
      7       1.8299      2.00000
      8       1.8299      2.00000
      9       8.5087      0.00000
     10       8.5087      0.00000
     11      10.9702      0.00000
     12      10.9702      0.00000
     13      13.2935      0.00000
     14      13.2935      0.00000
     15      14.9349      0.00000
     16      14.9349      0.00000

 k-point  11 :       0.5000    0.0000    0.5000
  band No.  band energies     occupation 
      1     -10.1741      2.00000
      2     -10.1741      2.00000
      3      -3.5367      2.00000
      4      -3.5367      2.00000
      5       1.1795      2.00000
      6       1.1795      2.00000
      7       1.2274      2.00000
      8       1.2274      2.00000
      9       7.6503      0.00000
     10       7.6503      0.00000
     11      11.0963      0.00000
     12      11.0963      0.00000
     13      13.2465      0.00000
     14      13.2465      0.00000
     15      15.5499      0.00000
     16      15.5499      0.00000

 k-point  12 :       0.2500    0.2500    0.5000
  band No.  band energies     occupation 
      1     -10.2101      2.00000
      2     -10.2101      2.00000
      3      -2.8813      2.00000
      4      -2.8813      2.00000
      5      -0.3147      2.00000
      6      -0.3147      2.00000
      7       1.4931      2.00000
      8       1.4931      2.00000
      9       9.1258      0.00000
     10       9.1258      0.00000
     11      11.3008      0.00000
     12      11.3008      0.00000
     13      12.2839      0.00000
     14      12.2839      0.00000
     15      15.7594      0.00000
     16      15.7594      0.00000


--------------------------------------------------------------------------------------------------------


 soft charge-density along one line, spin component           1
         0         1         2         3         4         5         6         7         8         9
 total charge-density along one line
 
 pseudopotential strength for first ion, spin component:           1
  5.418   6.464   0.000  -0.000  -0.000   0.000  -0.001  -0.000
  6.464   7.701   0.000  -0.001  -0.000   0.000  -0.001  -0.000
  0.000   0.000   1.268  -0.000   0.000   2.119  -0.000   0.000
 -0.000  -0.001  -0.000   1.268   0.000  -0.000   2.118   0.000
 -0.000  -0.000   0.000   0.000   1.268   0.000   0.000   2.119
  0.000   0.000   2.119  -0.000   0.000   3.557  -0.000   0.000
 -0.001  -0.001  -0.000   2.118   0.000  -0.000   3.554   0.000
 -0.000  -0.000   0.000   0.000   2.119   0.000   0.000   3.557
  0.000   0.000  -0.000  -0.000  -0.005  -0.000  -0.000  -0.009
 -0.000  -0.000  -0.004   0.000  -0.000  -0.006   0.000  -0.000
 -0.001  -0.001  -0.000   0.006   0.000  -0.000   0.010   0.000
  0.000   0.000  -0.000  -0.000  -0.004  -0.000  -0.000  -0.006
 -0.000  -0.000  -0.005   0.000  -0.000  -0.009   0.000  -0.000
 total augmentation occupancy for first ion, spin component:           1
  7.907  -4.132  -0.000  -0.013   0.000  -0.000   0.005   0.000   0.000   0.000  -0.018   0.000  -0.000
 -4.132   2.321  -0.000   0.015  -0.000   0.000  -0.004   0.000   0.000  -0.000   0.006  -0.000   0.000
 -0.000   0.000   4.041   0.000   0.000  -1.118  -0.000   0.000   0.000  -0.315  -0.000  -0.000  -0.462
 -0.013   0.015  -0.000   3.924   0.000   0.000  -1.085   0.000  -0.000  -0.000   0.544   0.000   0.000
  0.000   0.000   0.000   0.000   4.041   0.000   0.000  -1.118  -0.462  -0.000   0.000  -0.315  -0.000
  0.000   0.000  -1.118  -0.000   0.000   0.326   0.000   0.000  -0.000   0.084   0.000   0.000   0.123
  0.005  -0.004   0.000  -1.085   0.000  -0.000   0.316   0.000   0.000  -0.000  -0.144   0.000  -0.000
  0.000   0.000   0.000   0.000  -1.118   0.000   0.000   0.326   0.123   0.000  -0.000   0.084   0.000
  0.000   0.000   0.000   0.000  -0.462  -0.000   0.000   0.123   0.129   0.000  -0.000   0.048  -0.000
  0.000  -0.000  -0.315  -0.000  -0.000   0.084  -0.000   0.000   0.000   0.090   0.000   0.000   0.048
 -0.018   0.006  -0.000   0.544   0.000   0.000  -0.144  -0.000  -0.000   0.000   0.160  -0.000   0.000
  0.000   0.000  -0.000   0.000  -0.315   0.000   0.000   0.084   0.048   0.000   0.000   0.090   0.000
 -0.000   0.000  -0.462   0.000  -0.000   0.123  -0.000   0.000  -0.000   0.048   0.000   0.000   0.129


------------------------ aborting loop because EDIFF is reached ----------------------------------------


 


 total charge     
 
# of ion     s       p       d       tot
----------------------------------------
  1        1.016   1.474   0.415   2.905
  2        1.021   1.473   0.413   2.907
  3        1.224   2.537   0.000   3.760
  4        1.223   2.539   0.000   3.762
------------------------------------------------
tot        4.484   8.023   0.828  13.335
 
    CHARGE:  cpu time    0.01: real time    0.01
    FORLOC:  cpu time    0.00: real time    0.00
    FORNL :  cpu time    0.09: real time    0.09
    STRESS:  cpu time    0.27: real time    0.27
    FORCOR:  cpu time    0.01: real time    0.01
    FORHAR:  cpu time    0.00: real time    0.00
    MIXING:  cpu time    0.00: real time    0.00

  FORCE on cell =-STRESS in cart. coord.  units (eV):
  Direction    XX          YY          ZZ          XY          YZ          ZX
  --------------------------------------------------------------------------------------
  Alpha Z    57.55312    57.55312    57.55312
  Ewald    -194.19603  -194.19532  -188.83376     0.00063     0.00000     0.00000
  Hartree    50.81771    50.81768    53.89305    -0.00003    -0.00000     0.00001
  E(xc)     -67.31018   -67.31020   -67.15404    -0.00002    -0.00000     0.00001
  Local     -81.00672   -81.00714   -89.31868    -0.00036    -0.00002     0.00004
  n-local    -2.38534    -3.60304    -3.53169     1.51616     0.13691     0.19859
  augment     7.70524     7.70526     7.63176     0.00002    -0.00000     0.00000
  Kinetic   230.00966   237.48378   233.60225    -7.01181    -0.58491    -0.90813
  Fock        0.00000     0.00000     0.00000     0.00000     0.00000     0.00000
  -------------------------------------------------------------------------------------
  Total       4.31581     4.31581     3.84202     0.00000     0.00000    -0.00000
  in kB     153.51706   153.51707   136.66382     0.00000     0.00000    -0.00000
  external pressure =      147.90 kB  Pullay stress =        0.00 kB


 VOLUME and BASIS-vectors are now :
 -----------------------------------------------------------------------------
  energy-cutoff  :      520.00
  volume of cell :       45.04
      direct lattice vectors                 reciprocal lattice vectors
     3.172275587  0.000000000  0.000000000     0.315231124  0.181998764  0.000000000
    -1.586137793  2.747271398  0.000000000     0.000000000  0.363997529  0.000000000
     0.000000000  0.000000000  5.168253960     0.000000000  0.000000000  0.193488944

  length of vectors
     3.172275587  3.172275718  5.168253960     0.363997544  0.363997529  0.193488944


 FORCES acting on ions
    electron-ion (+dipol)            ewald-force                    non-local-force                 convergence-correction
 -----------------------------------------------------------------------------------------------
   0.209E-04 -.163E-04 -.104E+01   0.177E-03 -.972E-04 0.103E+01   0.209E-17 -.525E-17 0.531E-01   0.184E-08 -.110E-08 0.846E-04
   -.945E-05 0.959E-05 -.104E+01   -.177E-03 0.972E-04 0.103E+01   -.729E-17 0.330E-17 0.531E-01   -.152E-08 0.913E-09 0.846E-04
   0.637E-03 -.369E-03 0.622E+00   0.187E-03 -.102E-03 -.103E+01   -.242E-17 -.226E-17 0.370E+00   0.847E-08 -.526E-08 -.732E-03
   -.164E-02 0.947E-03 0.622E+00   -.187E-03 0.102E-03 -.103E+01   0.476E-17 0.444E-19 0.370E+00   -.126E-07 0.763E-08 -.732E-03
 -----------------------------------------------------------------------------------------------
   -.988E-03 0.570E-03 -.839E+00   0.103E-14 -.151E-14 -.888E-15   -.285E-17 -.416E-17 0.847E+00   -.378E-08 0.219E-08 -.130E-02
 
 
 POSITION                                       TOTAL-FORCE (eV/Angst)
 -----------------------------------------------------------------------------------
     -0.00000      1.83152      5.16273        -0.000000      0.000000      0.042698
      1.58614      0.91576      2.57860        -0.000000      0.000000      0.042698
     -0.00000      1.83152      1.94362        -0.000000     -0.000000     -0.042698
      1.58614      0.91576      4.52775         0.000000      0.000000     -0.042698
 -----------------------------------------------------------------------------------
    total drift:                               -0.000988      0.000570      0.006916


--------------------------------------------------------------------------------------------------------



  FREE ENERGIE OF THE ION-ELECTRON SYSTEM (eV)
  ---------------------------------------------------
  free  energy   TOTEN  =       -24.13408971 eV

  energy  without entropy=      -24.13408971  energy(sigma->0) =      -24.13408971
 


--------------------------------------------------------------------------------------------------------


    POTLOK:  cpu time    0.01: real time    0.01


--------------------------------------------------------------------------------------------------------




--------------------------------------------------------------------------------------------------------


    WAVPRE:  cpu time    0.00: real time    0.00
 FEWALD executed in parallel
    FEWALD:  cpu time    0.00: real time    0.00
    GENKIN:  cpu time    0.00: real time    0.00
    ORTHCH:  cpu time    0.02: real time    0.02
     LOOP+:  cpu time    2.10: real time    2.17


----------------------------------------- Iteration    2(   1)  ---------------------------------------


    POTLOK:  cpu time    0.01: real time    0.01
    SETDIJ:  cpu time    0.00: real time    0.00
     EDDAV:  cpu time    0.11: real time    0.11
 BZINTS: Fermi energy:  0.789403; 16.000000 electrons
         Band energy: -69.665319;  BLOECHL correction:  0.000000
       DOS:  cpu time    0.00: real time    0.00
    CHARGE:  cpu time    0.01: real time    0.01
    MIXING:  cpu time    0.00: real time    0.00
    --------------------------------------------
      LOOP:  cpu time    0.13: real time    0.13

 eigenvalue-minimisations  :   416
 total energy-change (2. order) :-0.1021840E+01  (-0.2558447E+01)
 number of electron      15.9999992 magnetization 
 augmentation part       -0.2498085 magnetization 

 Broyden mixing:
  rms(total) = 0.71945E+00    rms(broyden)= 0.71893E+00
  rms(prec ) = 0.12545E+01
  weight for this iteration     100.00

 Free energy of the ion-electron system (eV)
  ---------------------------------------------------
  alpha Z        PSCENC =        49.69619937
  Ewald energy   TEWEN  =      -549.64222293
  -1/2 Hartree   DENC   =      -148.10888600
  -exchange  EXHF       =         0.00000000
  -V(xc)+E(xc)   XCENC  =         2.24252977
  PAW double counting   =      1872.17098107    -1828.65886186
  entropy T*S    EENTRO =         0.00000000
  eigenvalues    EBANDS =       -69.66531858
  atomic energy  EATOM  =       646.80964955
  ---------------------------------------------------
  free energy    TOTEN  =       -25.15592960 eV

  energy without entropy =      -25.15592960  energy(sigma->0) =      -25.15592960


--------------------------------------------------------------------------------------------------------




----------------------------------------- Iteration    2(   2)  ---------------------------------------


    POTLOK:  cpu time    0.01: real time    0.01
    SETDIJ:  cpu time    0.00: real time    0.00
     EDDAV:  cpu time    0.10: real time    0.10
 BZINTS: Fermi energy:  2.118229; 16.000000 electrons
         Band energy: -54.298516;  BLOECHL correction:  0.000000
       DOS:  cpu time    0.00: real time    0.00
    CHARGE:  cpu time    0.01: real time    0.01
    MIXING:  cpu time    0.00: real time    0.00
    --------------------------------------------
      LOOP:  cpu time    0.12: real time    0.12

 eigenvalue-minimisations  :   384
 total energy-change (2. order) : 0.9970609E+00  (-0.7632548E+00)
 number of electron      15.9999994 magnetization 
 augmentation part       -0.4812664 magnetization 

 Broyden mixing:
  rms(total) = 0.16797E+00    rms(broyden)= 0.16779E+00
  rms(prec ) = 0.23950E+00
  weight for this iteration     100.00

 eigenvalues of (default mixing * dielectric matrix)
  average eigenvalue GAMMA=   1.0310
  1.0310

 Free energy of the ion-electron system (eV)
  ---------------------------------------------------
  alpha Z        PSCENC =        49.69619937
  Ewald energy   TEWEN  =      -549.64222293
  -1/2 Hartree   DENC   =      -163.69193125
  -exchange  EXHF       =         0.00000000
  -V(xc)+E(xc)   XCENC  =         3.34589861
  PAW double counting   =      1664.67528486    -1621.05323128
  entropy T*S    EENTRO =         0.00000000
  eigenvalues    EBANDS =       -54.29851561
  atomic energy  EATOM  =       646.80964955
  ---------------------------------------------------
  free energy    TOTEN  =       -24.15886868 eV

  energy without entropy =      -24.15886868  energy(sigma->0) =      -24.15886868


--------------------------------------------------------------------------------------------------------




----------------------------------------- Iteration    2(   3)  ---------------------------------------


    POTLOK:  cpu time    0.01: real time    0.01
    SETDIJ:  cpu time    0.00: real time    0.00
     EDDAV:  cpu time    0.11: real time    0.11
 BZINTS: Fermi energy:  1.977714; 16.000000 electrons
         Band energy: -55.374901;  BLOECHL correction:  0.000000
       DOS:  cpu time    0.00: real time    0.00
    CHARGE:  cpu time    0.01: real time    0.01
    MIXING:  cpu time    0.00: real time    0.00
    --------------------------------------------
      LOOP:  cpu time    0.12: real time    0.13

 eigenvalue-minimisations  :   400
 total energy-change (2. order) : 0.3087950E-01  (-0.1228936E-01)
 number of electron      15.9999994 magnetization 
 augmentation part       -0.4574420 magnetization 

 Broyden mixing:
  rms(total) = 0.94064E-01    rms(broyden)= 0.94059E-01
  rms(prec ) = 0.12882E+00
  weight for this iteration     100.00

 eigenvalues of (default mixing * dielectric matrix)
  average eigenvalue GAMMA=   1.3926
  0.9270  1.8583

 Free energy of the ion-electron system (eV)
  ---------------------------------------------------
  alpha Z        PSCENC =        49.69619937
  Ewald energy   TEWEN  =      -549.64222293
  -1/2 Hartree   DENC   =      -162.55488218
  -exchange  EXHF       =         0.00000000
  -V(xc)+E(xc)   XCENC  =         3.17665034
  PAW double counting   =      1546.92547710    -1503.16395940
  entropy T*S    EENTRO =         0.00000000
  eigenvalues    EBANDS =       -55.37490102
  atomic energy  EATOM  =       646.80964955
  ---------------------------------------------------
  free energy    TOTEN  =       -24.12798918 eV

  energy without entropy =      -24.12798918  energy(sigma->0) =      -24.12798918


--------------------------------------------------------------------------------------------------------




----------------------------------------- Iteration    2(   4)  ---------------------------------------


    POTLOK:  cpu time    0.01: real time    0.01
    SETDIJ:  cpu time    0.00: real time    0.00
     EDDAV:  cpu time    0.13: real time    0.13
 BZINTS: Fermi energy:  1.959205; 16.000000 electrons
         Band energy: -55.298100;  BLOECHL correction:  0.000000
       DOS:  cpu time    0.00: real time    0.00
    CHARGE:  cpu time    0.01: real time    0.01
    MIXING:  cpu time    0.00: real time    0.00
    --------------------------------------------
      LOOP:  cpu time    0.15: real time    0.15

 eigenvalue-minimisations  :   496
 total energy-change (2. order) : 0.1598405E-01  (-0.1568286E-02)
 number of electron      15.9999994 magnetization 
 augmentation part       -0.4440603 magnetization 

 Broyden mixing:
  rms(total) = 0.20458E-01    rms(broyden)= 0.20457E-01
  rms(prec ) = 0.29903E-01
  weight for this iteration     100.00

 eigenvalues of (default mixing * dielectric matrix)
  average eigenvalue GAMMA=   1.3955
  2.0589  1.0638  1.0638

 Free energy of the ion-electron system (eV)
  ---------------------------------------------------
  alpha Z        PSCENC =        49.69619937
  Ewald energy   TEWEN  =      -549.64222293
  -1/2 Hartree   DENC   =      -162.68139631
  -exchange  EXHF       =         0.00000000
  -V(xc)+E(xc)   XCENC  =         3.08489706
  PAW double counting   =      1423.46026354    -1379.54129519
  entropy T*S    EENTRO =         0.00000000
  eigenvalues    EBANDS =       -55.29810021
  atomic energy  EATOM  =       646.80964955
  ---------------------------------------------------
  free energy    TOTEN  =       -24.11200512 eV

  energy without entropy =      -24.11200512  energy(sigma->0) =      -24.11200512


--------------------------------------------------------------------------------------------------------




----------------------------------------- Iteration    2(   5)  ---------------------------------------


    POTLOK:  cpu time    0.01: real time    0.01
    SETDIJ:  cpu time    0.00: real time    0.00
     EDDAV:  cpu time    0.12: real time    0.12
 BZINTS: Fermi energy:  2.038026; 16.000000 electrons
         Band energy: -55.006864;  BLOECHL correction:  0.000000
       DOS:  cpu time    0.00: real time    0.00
    CHARGE:  cpu time    0.01: real time    0.01
    MIXING:  cpu time    0.00: real time    0.00
    --------------------------------------------
      LOOP:  cpu time    0.14: real time    0.14

 eigenvalue-minimisations  :   464
 total energy-change (2. order) : 0.7126358E-03  (-0.1998117E-03)
 number of electron      15.9999994 magnetization 
 augmentation part       -0.4459755 magnetization 

 Broyden mixing:
  rms(total) = 0.11800E-01    rms(broyden)= 0.11800E-01
  rms(prec ) = 0.13046E-01
  weight for this iteration     100.00

 eigenvalues of (default mixing * dielectric matrix)
  average eigenvalue GAMMA=   1.8078
  3.0536  2.2850  0.9463  0.9463

 Free energy of the ion-electron system (eV)
  ---------------------------------------------------
  alpha Z        PSCENC =        49.69619937
  Ewald energy   TEWEN  =      -549.64222293
  -1/2 Hartree   DENC   =      -163.00378747
  -exchange  EXHF       =         0.00000000
  -V(xc)+E(xc)   XCENC  =         3.09351395
  PAW double counting   =      1414.24638749    -1370.30416891
  entropy T*S    EENTRO =         0.00000000
  eigenvalues    EBANDS =       -55.00686354
  atomic energy  EATOM  =       646.80964955
  ---------------------------------------------------
  free energy    TOTEN  =       -24.11129249 eV

  energy without entropy =      -24.11129249  energy(sigma->0) =      -24.11129249


--------------------------------------------------------------------------------------------------------




----------------------------------------- Iteration    2(   6)  ---------------------------------------


    POTLOK:  cpu time    0.01: real time    0.01
    SETDIJ:  cpu time    0.00: real time    0.00
     EDDAV:  cpu time    0.12: real time    0.12
 BZINTS: Fermi energy:  2.039344; 16.000000 electrons
         Band energy: -54.980131;  BLOECHL correction:  0.000000
       DOS:  cpu time    0.00: real time    0.00
    --------------------------------------------
      LOOP:  cpu time    0.13: real time    0.13

 eigenvalue-minimisations  :   448
 total energy-change (2. order) : 0.2430807E-04  (-0.1389855E-04)
 number of electron      15.9999994 magnetization 
 augmentation part       -0.4459755 magnetization 

 Free energy of the ion-electron system (eV)
  ---------------------------------------------------
  alpha Z        PSCENC =        49.69619937
  Ewald energy   TEWEN  =      -549.64222293
  -1/2 Hartree   DENC   =      -163.03416300
  -exchange  EXHF       =         0.00000000
  -V(xc)+E(xc)   XCENC  =         3.08828869
  PAW double counting   =      1423.07100605    -1379.11989469
  entropy T*S    EENTRO =         0.00000000
  eigenvalues    EBANDS =       -54.98013121
  atomic energy  EATOM  =       646.80964955
  ---------------------------------------------------
  free energy    TOTEN  =       -24.11126818 eV

  energy without entropy =      -24.11126818  energy(sigma->0) =      -24.11126818


--------------------------------------------------------------------------------------------------------




 average (electrostatic) potential at core
  the test charge radii are     1.2767  0.7089
  (the norm of the test charge is              1.0000)
       1 -14.1230       2 -14.1230       3 -65.2927       4 -65.2927
 
 
 
 E-fermi :   2.0393     XC(G=0): -10.2675     alpha+bet : -9.7011


 k-point   1 :       0.0000    0.0000    0.0000
  band No.  band energies     occupation 
      1     -12.9309      2.00000
      2     -11.0274      2.00000
      3      -4.2558      2.00000
      4       1.0674      2.00000
      5       1.0674      2.00000
      6       1.9315      2.00000
      7       1.9553      2.00000
      8       1.9554      2.00000
      9       3.0420      0.00000
     10       5.3807      0.00000
     11      10.4621      0.00000
     12      11.1028      0.00000
     13      11.1028      0.00000
     14      11.9369      0.00000
     15      12.7050      0.00000
     16      12.7051      0.00000

 k-point   2 :       0.2500    0.0000    0.0000
  band No.  band energies     occupation 
      1     -12.2547      2.00000
      2     -10.6538      2.00000
      3      -3.6141      2.00000
      4      -1.5806      2.00000
      5      -0.8559      2.00000
      6       0.2808      2.00000
      7       1.3587      2.00000
      8       1.5475      2.00000
      9       5.5259      0.00000
     10       7.1088      0.00000
     11       8.8526      0.00000
     12       9.8679      0.00000
     13      11.2609      0.00000
     14      11.8351      0.00000
     15      12.6109      0.00000
     16      13.5698      0.00000

 k-point   3 :       0.5000    0.0000    0.0000
  band No.  band energies     occupation 
      1     -11.1418      2.00000
      2     -10.4707      2.00000
      3      -3.8681      2.00000
      4      -2.8707      2.00000
      5      -1.6674      2.00000
      6      -0.3372      2.00000
      7       0.0984      2.00000
      8       1.1367      2.00000
      9       6.6173      0.00000
     10       6.7101      0.00000
     11       7.7724      0.00000
     12       9.5693      0.00000
     13      11.5538      0.00000
     14      11.6651      0.00000
     15      13.6554      0.00000
     16      14.0720      0.00000

 k-point   4 :       0.2500    0.2500    0.0000
  band No.  band energies     occupation 
      1     -11.2205      2.00000
      2     -10.4010      2.00000
      3      -3.2528      2.00000
      4      -2.7192      2.00000
      5      -1.4984      2.00000
      6      -1.4902      2.00000
      7       0.1967      2.00000
      8       0.3308      2.00000
      9       7.6451      0.00000
     10       7.6558      0.00000
     11       8.7842      0.00000
[...]
  ---------------------------------------------------
  free  energy   TOTEN  =       -24.27310609 eV

  energy  without entropy=      -24.27310609  energy(sigma->0) =      -24.27310609
 
 d Force = 0.1212098E-14[ 0.121E-14, 0.121E-14]  d Energy =-0.2842171E-11 0.284E-11
 d Force = 0.3444324E-11[ 0.344E-11, 0.344E-11]  d Ewald  = 0.1581043E-08-0.158E-08


--------------------------------------------------------------------------------------------------------


    POTLOK:  cpu time    0.01: real time    0.01


--------------------------------------------------------------------------------------------------------




--------------------------------------------------------------------------------------------------------


    WAVPRE:  cpu time    0.00: real time    0.00
 FEWALD executed in parallel
    FEWALD:  cpu time    0.00: real time    0.00
    GENKIN:  cpu time    0.00: real time    0.00
    ORTHCH:  cpu time    0.02: real time    0.02
     LOOP+:  cpu time    0.64: real time    1.08


----------------------------------------- Iteration   47(   1)  ---------------------------------------


    POTLOK:  cpu time    0.01: real time    0.01
    SETDIJ:  cpu time    0.00: real time    0.00
     EDDAV:  cpu time    0.07: real time    0.07
 BZINTS: Fermi energy:  2.639177; 16.000000 electrons
         Band energy: -49.038604;  BLOECHL correction:  0.000000
       DOS:  cpu time    0.00: real time    0.00
    CHARGE:  cpu time    0.01: real time    0.01
    MIXING:  cpu time    0.00: real time    0.00
    --------------------------------------------
      LOOP:  cpu time    0.09: real time    0.09

 eigenvalue-minimisations  :   192
 total energy-change (2. order) : 0.7230256E-08  (-0.1847518E-08)
 number of electron      16.0000002 magnetization 
 augmentation part       -0.4298795 magnetization 

 Broyden mixing:
  rms(total) = 0.14292E-04    rms(broyden)= 0.14285E-04
  rms(prec ) = 0.25650E-04
  weight for this iteration     100.00

 Free energy of the ion-electron system (eV)
  ---------------------------------------------------
  alpha Z        PSCENC =        53.76153237
  Ewald energy   TEWEN  =      -564.24301203
  -1/2 Hartree   DENC   =      -158.99939022
  -exchange  EXHF       =         0.00000000
  -V(xc)+E(xc)   XCENC  =         3.69983034
  PAW double counting   =      1640.81618460    -1597.07929690
  entropy T*S    EENTRO =         0.00000000
  eigenvalues    EBANDS =       -49.03860381
  atomic energy  EATOM  =       646.80964955
  ---------------------------------------------------
  free energy    TOTEN  =       -24.27310609 eV

  energy without entropy =      -24.27310609  energy(sigma->0) =      -24.27310609


--------------------------------------------------------------------------------------------------------




----------------------------------------- Iteration   47(   2)  ---------------------------------------


    POTLOK:  cpu time    0.01: real time    0.01
    SETDIJ:  cpu time    0.00: real time    0.00
     EDDAV:  cpu time    0.07: real time    0.07
 BZINTS: Fermi energy:  2.639165; 16.000000 electrons
         Band energy: -49.038880;  BLOECHL correction:  0.000000
       DOS:  cpu time    0.00: real time    0.00
    --------------------------------------------
      LOOP:  cpu time    0.08: real time    0.09

 eigenvalue-minimisations  :   192
 total energy-change (2. order) :-0.3329660E-08  (-0.2532076E-09)
 number of electron      16.0000002 magnetization 
 augmentation part       -0.4298795 magnetization 

 Free energy of the ion-electron system (eV)
  ---------------------------------------------------
  alpha Z        PSCENC =        53.76153237
  Ewald energy   TEWEN  =      -564.24301203
  -1/2 Hartree   DENC   =      -158.99909073
  -exchange  EXHF       =         0.00000000
  -V(xc)+E(xc)   XCENC  =         3.69980916
  PAW double counting   =      1640.81962746    -1597.08274197
  entropy T*S    EENTRO =         0.00000000
  eigenvalues    EBANDS =       -49.03887990
  atomic energy  EATOM  =       646.80964955
  ---------------------------------------------------
  free energy    TOTEN  =       -24.27310609 eV

  energy without entropy =      -24.27310609  energy(sigma->0) =      -24.27310609


--------------------------------------------------------------------------------------------------------




 average (electrostatic) potential at core
  the test charge radii are     1.2767  0.7089
  (the norm of the test charge is              1.0000)
       1 -13.3680       2 -13.3679       3 -64.6536       4 -64.6536
 
 
 
 E-fermi :   2.6392     XC(G=0): -10.6156     alpha+bet :-10.4947


 k-point   1 :       0.0000    0.0000    0.0000
  band No.  band energies     occupation 
      1     -12.9130      2.00000
      2     -10.7441      2.00000
      3      -4.0794      2.00000
      4       1.5893      2.00000
      5       1.5894      2.00000
      6       2.5435      2.00000
      7       2.5542      2.00000
      8       2.5542      2.00000
      9       4.1804      0.00000
     10       6.5021      0.00000
     11      11.5209      0.00000
     12      12.1938      0.00000
     13      12.1938      0.00000
     14      13.0556      0.00000
     15      13.9148      0.00000
     16      13.9149      0.00000

 k-point   2 :       0.2500    0.0000    0.0000
  band No.  band energies     occupation 
      1     -12.1548      2.00000
      2     -10.3095      2.00000
      3      -3.3418      2.00000
      4      -1.2528      2.00000
      5      -0.3199      2.00000
      6       0.7149      2.00000
      7       1.9161      2.00000
      8       2.0981      2.00000
      9       6.5994      0.00000
     10       8.2144      0.00000
     11       9.7973      0.00000
     12      10.8718      0.00000
     13      12.4113      0.00000
     14      13.0008      0.00000
     15      13.6991      0.00000
     16      14.8505      0.00000

 k-point   3 :       0.5000    0.0000    0.0000
  band No.  band energies     occupation 
      1     -10.8638      2.00000
      2     -10.0999      2.00000
      3      -3.6196      2.00000
      4      -2.5219      2.00000
      5      -1.3647      2.00000
      6       0.0308      2.00000
      7       0.5156      2.00000
      8       1.6402      2.00000
      9       7.4984      0.00000
     10       7.8464      0.00000
     11       8.5637      0.00000
     12      10.8021      0.00000
     13      12.6375      0.00000
     14      12.7464      0.00000
     15      14.7069      0.00000
     16      15.4181      0.00000

 k-point   4 :       0.2500    0.2500    0.0000
  band No.  band energies     occupation 
      1     -10.9668      2.00000
      2     -10.0045      2.00000
      3      -2.8969      2.00000
      4      -2.3848      2.00000
      5      -1.2280      2.00000
      6      -1.1667      2.00000
      7       0.5995      2.00000
      8       0.7868      2.00000
      9       8.3588      0.00000
     10       8.8709      0.00000
     11      10.0618      0.00000
     12      10.1759      0.00000
     13      11.9203      0.00000
     14      12.6578      0.00000
     15      13.1984      0.00000
     16      15.8573      0.00000

 k-point   5 :       0.0000    0.0000    0.2500
  band No.  band energies     occupation 
      1     -12.6851      2.00000
      2     -11.2043      2.00000
      3      -3.2051      2.00000
      4       1.0066      2.00000
      5       1.7236      2.00000
      6       1.7236      2.00000
      7       2.4060      2.00000
      8       2.4061      2.00000
      9       5.4197      0.00000
     10       6.6138      0.00000
     11      11.1377      0.00000
     12      11.8751      0.00000
     13      12.2824      0.00000
     14      12.2824      0.00000
     15      13.4440      0.00000
     16      13.4441      0.00000

 k-point   6 :       0.2500    0.0000    0.2500
  band No.  band energies     occupation 
      1     -11.9498      2.00000
      2     -10.6750      2.00000
      3      -2.8875      2.00000
      4      -1.0974      2.00000
      5      -0.5283      2.00000
      6       0.8943      2.00000
      7       1.7275      2.00000
      8       1.8679      2.00000
      9       6.7375      0.00000
     10       8.3054      0.00000
     11       9.6631      0.00000
     12      10.5316      0.00000
     13      12.1690      0.00000
     14      13.1264      0.00000
     15      13.2299      0.00000
     16      14.5232      0.00000

 k-point   7 :       0.5000    0.0000    0.2500
  band No.  band energies     occupation 
      1     -10.7519      2.00000
      2     -10.2072      2.00000
      3      -3.8463      2.00000
      4      -3.0748      2.00000
      5      -0.5216      2.00000
      6       0.2333      2.00000
      7       1.0174      2.00000
      8       1.3628      2.00000
      9       6.7388      0.00000
     10       7.5327      0.00000
     11       9.8729      0.00000
     12      10.1114      0.00000
     13      12.5331      0.00000
     14      13.1128      0.00000
     15      13.2520      0.00000
     16      15.5914      0.00000

 k-point   8 :       0.2500    0.2500    0.2500
  band No.  band energies     occupation 
      1     -10.8364      2.00000
      2     -10.1544      2.00000
      3      -3.2079      2.00000
      4      -2.6786      2.00000
      5      -1.1506      2.00000
      6      -0.2994      2.00000
      7       0.2110      2.00000
      8       1.2385      2.00000
      9       8.3728      0.00000
     10       8.5597      0.00000
     11      10.2130      0.00000
     12      10.2508      0.00000
     13      11.3799      0.00000
     14      11.7470      0.00000
     15      13.9432      0.00000
     16      15.6927      0.00000

 k-point   9 :       0.0000    0.0000    0.5000
  band No.  band energies     occupation 
      1     -12.0465      2.00000
      2     -12.0465      2.00000
      3      -1.2248      2.00000
      4      -1.2248      2.00000
      5       2.0577      2.00000
      6       2.0577      2.00000
      7       2.0578      2.00000
      8       2.0578      2.00000
      9       6.5218      0.00000
     10       6.5218      0.00000
     11      10.8188      0.00000
     12      10.8188      0.00000
     13      12.6977      0.00000
     14      12.6978      0.00000
     15      12.6978      0.00000
     16      12.6978      0.00000

 k-point  10 :       0.2500    0.0000    0.5000
  band No.  band energies     occupation 
      1     -11.3859      2.00000
      2     -11.3859      2.00000
      3      -1.9672      2.00000
      4      -1.9672      2.00000
      5       0.6327      2.00000
      6       0.6327      2.00000
      7       1.3562      2.00000
      8       1.3562      2.00000
      9       7.5956      0.00000
     10       7.5956      0.00000
     11       9.9360      0.00000
     12       9.9360      0.00000
     13      12.3162      0.00000
     14      12.3162      0.00000
     15      13.8276      0.00000
     16      13.8276      0.00000

 k-point  11 :       0.5000    0.0000    0.5000
  band No.  band energies     occupation 
      1     -10.4779      2.00000
      2     -10.4779      2.00000
      3      -3.7491      2.00000
      4      -3.7491      2.00000
      5       0.7618      2.00000
      6       0.7618      2.00000
      7       0.8107      2.00000
      8       0.8107      2.00000
      9       6.8481      0.00000
     10       6.8481      0.00000
     11      10.0672      0.00000
     12      10.0672      0.00000
     13      12.2626      0.00000
     14      12.2626      0.00000
     15      14.4346      0.00000
     16      14.4346      0.00000

 k-point  12 :       0.2500    0.2500    0.5000
  band No.  band energies     occupation 
      1     -10.5057      2.00000
      2     -10.5057      2.00000
      3      -3.1805      2.00000
      4      -3.1805      2.00000
      5      -0.6092      2.00000
      6      -0.6092      2.00000
      7       1.0695      2.00000
      8       1.0695      2.00000
      9       8.2438      0.00000
     10       8.2438      0.00000
     11      10.2851      0.00000
     12      10.2851      0.00000
     13      11.2665      0.00000
     14      11.2665      0.00000
     15      14.6965      0.00000
     16      14.6965      0.00000


--------------------------------------------------------------------------------------------------------


 soft charge-density along one line, spin component           1
         0         1         2         3         4         5         6         7         8         9
 total charge-density along one line
 
 pseudopotential strength for first ion, spin component:           1
  5.554   6.637   0.000  -0.001  -0.000   0.000  -0.001  -0.000
  6.637   7.920   0.000  -0.001  -0.000   0.000  -0.001  -0.000
  0.000   0.000   1.279  -0.000   0.000   2.138  -0.000   0.000
 -0.001  -0.001  -0.000   1.278   0.000  -0.000   2.138   0.000
 -0.000  -0.000   0.000   0.000   1.279   0.000   0.000   2.138
  0.000   0.000   2.138  -0.000   0.000   3.592  -0.000   0.000
 -0.001  -0.001  -0.000   2.138   0.000  -0.000   3.591   0.000
 -0.000  -0.000   0.000   0.000   2.138   0.000   0.000   3.592
  0.000   0.000  -0.000  -0.000  -0.003  -0.000  -0.000  -0.005
 -0.000  -0.000  -0.002   0.000  -0.000  -0.003   0.000  -0.000
 -0.001  -0.001  -0.000   0.004   0.000  -0.000   0.006   0.000
  0.000   0.000  -0.000  -0.000  -0.002  -0.000  -0.000  -0.003
 -0.000  -0.000  -0.003   0.000  -0.000  -0.005   0.000  -0.000
 total augmentation occupancy for first ion, spin component:           1
  6.954  -3.512   0.000   0.013  -0.000   0.000  -0.005   0.000   0.000   0.000  -0.013   0.000  -0.000
 -3.512   1.938   0.000   0.001   0.000   0.000   0.001   0.000  -0.000   0.000   0.004  -0.000   0.000
  0.000   0.000   3.568  -0.000  -0.000  -0.968   0.000   0.000  -0.000  -0.275  -0.000   0.000  -0.406
  0.013   0.001   0.000   3.481  -0.000   0.000  -0.944   0.000   0.000  -0.000   0.483   0.000   0.000
 -0.000   0.000  -0.000  -0.000   3.568   0.000   0.000  -0.968  -0.406   0.000  -0.000  -0.275   0.000
  0.000  -0.000  -0.968  -0.000   0.000   0.278  -0.000  -0.000   0.000   0.072   0.000  -0.000   0.107
 -0.005   0.001  -0.000  -0.944   0.000  -0.000   0.271  -0.000  -0.000   0.000  -0.126  -0.000  -0.000
 -0.000  -0.000   0.000   0.000  -0.968  -0.000  -0.000   0.278   0.107  -0.000   0.000   0.072  -0.000
  0.000  -0.000  -0.000   0.000  -0.406   0.000  -0.000   0.107   0.110   0.000   0.000   0.041   0.000
 -0.000  -0.000  -0.275   0.000   0.000   0.072  -0.000  -0.000   0.000   0.076   0.000  -0.000   0.041
 -0.013   0.004  -0.000   0.483  -0.000   0.000  -0.126   0.000   0.000   0.000   0.138   0.000   0.000
  0.000  -0.000   0.000  -0.000  -0.275  -0.000   0.000   0.072   0.041  -0.000   0.000   0.076  -0.000
 -0.000   0.000  -0.406   0.000   0.000   0.107  -0.000  -0.000   0.000   0.041   0.000  -0.000   0.110


------------------------ aborting loop because EDIFF is reached ----------------------------------------


 


 total charge     
 
# of ion     s       p       d       tot
----------------------------------------
  1        0.993   1.339   0.355   2.686
  2        0.997   1.338   0.353   2.689
  3        1.227   2.480   0.000   3.708
  4        1.227   2.483   0.000   3.709
------------------------------------------------
tot        4.444   7.640   0.708  12.792
 
    CHARGE:  cpu time    0.01: real time    0.01
    FORLOC:  cpu time    0.00: real time    0.00
    FORNL :  cpu time    0.09: real time    0.09
    STRESS:  cpu time    0.25: real time    0.25
    FORCOR:  cpu time    0.01: real time    0.01
    FORHAR:  cpu time    0.00: real time    0.00
    MIXING:  cpu time    0.00: real time    0.00

  FORCE on cell =-STRESS in cart. coord.  units (eV):
  Direction    XX          YY          ZZ          XY          YZ          ZX
  --------------------------------------------------------------------------------------
  Alpha Z    53.76153    53.76153    53.76153
  Ewald    -190.22046  -190.21976  -183.80318     0.00062    -0.00000     0.00000
  Hartree    51.77272    51.77269    55.45359    -0.00003    -0.00000     0.00001
  E(xc)     -66.24003   -66.24005   -66.10597    -0.00002    -0.00000     0.00001
  Local     -81.83302   -81.83345   -91.74448    -0.00037    -0.00002     0.00004
  n-local    -4.15169    -5.42602    -5.15885     1.65551     0.14613     0.21088
  augment     7.49214     7.49216     7.44272     0.00002    -0.00000     0.00000
  Kinetic   226.18787   233.92482   230.15778    -7.67777    -0.66008    -0.99179
  Fock        0.00000     0.00000     0.00000     0.00000     0.00000     0.00000
  -------------------------------------------------------------------------------------
  Total       0.00050     0.00050     0.00313     0.00000    -0.00000    -0.00000
  in kB       0.01655     0.01655     0.10405     0.00000    -0.00000    -0.00000
  external pressure =        0.05 kB  Pullay stress =        0.00 kB


 VOLUME and BASIS-vectors are now :
 -----------------------------------------------------------------------------
  energy-cutoff  :      520.00
  volume of cell :       48.22
      direct lattice vectors                 reciprocal lattice vectors
     3.249163812 -0.000000000 -0.000000000     0.307771494  0.177691945  0.000000000
    -1.624581906  2.813858565 -0.000000000     0.000000000  0.355383889  0.000000000
    -0.000000000  0.000000000  5.273995036     0.000000000  0.000000000  0.189609583

  length of vectors
     3.249163812  3.249163953  5.273995036     0.355383904  0.355383889  0.189609583


 FORCES acting on ions
    electron-ion (+dipol)            ewald-force                    non-local-force                 convergence-correction
 -----------------------------------------------------------------------------------------------
   0.258E-04 -.191E-04 -.553E+00   0.170E-03 -.929E-04 0.630E+00   0.125E-16 -.170E-17 -.802E-01   -.551E-11 0.304E-11 -.388E-05
   -.140E-04 0.123E-04 -.553E+00   -.170E-03 0.929E-04 0.630E+00   -.385E-17 0.792E-17 -.802E-01   0.963E-11 -.542E-11 -.388E-05
   0.654E-03 -.379E-03 0.342E+00   0.179E-03 -.977E-04 -.630E+00   0.367E-17 0.413E-17 0.284E+00   0.273E-09 -.158E-09 0.284E-04
   -.167E-02 0.967E-03 0.342E+00   -.179E-03 0.977E-04 -.630E+00   0.222E-18 0.278E-17 0.284E+00   -.433E-09 0.251E-09 0.284E-04
 -----------------------------------------------------------------------------------------------
   -.101E-02 0.581E-03 -.422E+00   -.178E-14 -.242E-14 0.444E-15   0.125E-16 0.131E-16 0.408E+00   -.156E-09 0.900E-10 0.490E-04
 
 
 POSITION                                       TOTAL-FORCE (eV/Angst)
 -----------------------------------------------------------------------------------
     -0.00000      1.87591      5.26758         0.000000     -0.000000     -0.000478
      1.62458      0.93795      2.63059         0.000000     -0.000000     -0.000478
     -0.00000      1.87591      1.98416         0.000000      0.000000      0.000478
      1.62458      0.93795      4.62116        -0.000000     -0.000000      0.000478
 -----------------------------------------------------------------------------------
    total drift:                               -0.001006      0.000581     -0.013924


--------------------------------------------------------------------------------------------------------



  FREE ENERGIE OF THE ION-ELECTRON SYSTEM (eV)
  ---------------------------------------------------
  free  energy   TOTEN  =       -24.27310609 eV

  energy  without entropy=      -24.27310609  energy(sigma->0) =      -24.27310609
 
 d Force =-0.2607679E-09[-0.972E-09, 0.451E-09]  d Energy =-0.3896503E-08 0.364E-08
 d Force = 0.1280047E-05[ 0.128E-05, 0.128E-05]  d Ewald  = 0.5876016E-03-0.586E-03


--------------------------------------------------------------------------------------------------------


    POTLOK:  cpu time    0.01: real time    0.01


--------------------------------------------------------------------------------------------------------


