 vasp.5.3.3.4 18Dez12 (build Jun 09 2015 23:09:51) complex                      
  
 POSCAR found :  2 types and       4 ions
 LDA part: xc-table for Pade appr. of Perdew
 found WAVECAR, reading the header
 WAVECAR: different cutoff or change in lattice found
 POSCAR, INCAR and KPOINTS ok, starting setup
 WARNING: small aliasing (wrap around) errors must be expected
 FFT: planning ...
 reading WAVECAR
 the WAVECAR file was read sucessfully
 initial charge from wavefunction
 entering main loop
       N       E                     dE             d eps       ncg     rms          rms(c)
DAV:   1    -0.402086946313E+02   -0.40209E+02   -0.33675E+02   304   0.181E+02    0.259E+01
DAV:   2    -0.242499578966E+02    0.15959E+02   -0.45523E+01   300   0.538E+01    0.708E+00
DAV:   3    -0.239837272608E+02    0.26623E+00   -0.48896E+00   364   0.173E+01    0.221E+00
DAV:   4    -0.239032737947E+02    0.80453E-01   -0.77324E-01   332   0.656E+00    0.166E+00
DAV:   5    -0.238435930839E+02    0.59681E-01   -0.21440E-01   328   0.357E+00    0.995E-02
DAV:   6    -0.238443454451E+02   -0.75236E-03   -0.89716E-03   312   0.835E-01    0.344E-02
DAV:   7    -0.238443738253E+02   -0.28380E-04   -0.11207E-04   216   0.892E-02
   1 F= -.23844374E+02 E0= -.23844829E+02  d E =0.136630E-02
 writing wavefunctions
