 vasp.5.3.3.4 18Dez12 (build Jun 09 2015 23:09:51) complex                      
  
 POSCAR found :  1 types and       4 ions
 LDA part: xc-table for Pade appr. of Perdew
 found WAVECAR, reading the header
 WAVECAR: different cutoff or change in lattice found
 POSCAR, INCAR and KPOINTS ok, starting setup
 WARNING: small aliasing (wrap around) errors must be expected
 FFT: planning ...
 reading WAVECAR
 the WAVECAR file was read sucessfully
 initial charge from wavefunction
 entering main loop
       N       E                     dE             d eps       ncg     rms          rms(c)
DAV:   1    -0.198552030875E+02   -0.19855E+02   -0.17458E+02    36   0.112E+02    0.769E+00
DAV:   2    -0.185650050958E+02    0.12902E+01   -0.43263E+00    24   0.166E+01    0.445E+00
DAV:   3    -0.176779532859E+02    0.88705E+00   -0.11361E+00    36   0.886E+00    0.146E-01
DAV:   4    -0.176773306052E+02    0.62268E-03   -0.52732E-03    24   0.763E-01    0.759E-02
DAV:   5    -0.176770559937E+02    0.27461E-03   -0.13919E-04    20   0.184E-01    0.302E-03
DAV:   6    -0.176770568700E+02   -0.87636E-06   -0.35857E-05    12   0.774E-02
   1 F= -.17677057E+02 E0= -.17632191E+02  d E =-.134597E+00
 writing wavefunctions
