unknown system                          
   1.00000000000000     
     0.000000    2.715000    2.715000
     2.715000    0.000000    2.715000
     2.715000    2.715000    0.000000
   Si
     2
Direct
  0.000000  0.000000  0.000000
  0.250000  0.250000  0.250000
 
   32   32   32
 -7.7985     -5.9915     -1.1767      5.0986      11.008      15.145      16.943      16.684      15.193      13.372    
  11.634      10.110      8.8588      7.8954      7.2156      6.8115      6.6774      6.8114      7.2155      7.8953    
  8.8588      10.110      11.634      13.372      15.193      16.683      16.942      15.144      11.007      5.0983    
 -1.1766     -5.9913     -5.9915     -2.4732      3.3775      9.7267      14.860      17.781      18.406      17.370    
  15.613      13.806      12.155      10.744      9.6052      8.7473      8.1727      7.8843      7.8842      8.1726    
  8.7472      9.6052      10.744      12.155      13.806      15.613      17.370      18.406      17.781      14.859    
  9.7263      3.3774     -2.4731     -5.9915     -1.1767      3.3775      9.2317      14.618      18.238      19.634    
  19.159      17.635      15.870      14.183      12.685      11.423      10.414      9.6743      9.2203      9.0671    
  9.2203      9.6743      10.414      11.422      12.685      14.183      15.870      17.635      19.159      19.634    
  18.237      14.618      9.2315      3.3774     -1.1767     -2.8973      5.0986      9.7267      14.618      18.381    
  20.273      20.336      19.182      17.595      15.994      14.513      13.211      12.112      11.239      10.626    
  10.307      10.307      10.626      11.239      12.112      13.211      14.513      15.994      17.595      19.182    
  20.336      20.273      18.381      14.618      9.7265      5.0985      2.2771      2.2771      11.008      14.860    
  18.238      20.273      20.747      20.023      18.749      17.367      16.029      14.798      13.699      12.756    
  12.014      11.534      11.367      11.534      12.014      12.756      13.698      14.797      16.028      17.367    
  18.749      20.023      20.747      20.273      18.238      14.860      11.007      7.9360      6.7632      7.9362    
  15.145      17.781      19.634      20.336      20.023      19.156      18.111      17.035      15.994      15.005    
  14.085      13.278      12.663      12.328      12.328      12.663      13.278      14.085      15.005      15.994    
  17.035      18.111      19.156      20.023      20.336      19.635      17.781      15.145      12.543      10.925    
  10.925      12.544      16.943      18.406      19.159      19.182      18.749      18.111      17.388      16.639    
  15.870      15.079      14.298      13.606      13.114      12.934      13.114      13.606      14.298      15.079    
  15.870      16.639      17.388      18.111      18.749      19.182      19.159      18.406      16.943      15.160    
  13.693      13.125      13.693      15.161      16.684      17.370      17.635      17.595      17.367      17.035    
  16.639      16.173      15.613      14.963      14.272      13.659      13.292      13.292      13.659      14.272    
  14.963      15.613      16.172      16.639      17.035      17.367      17.595      17.635      17.370      16.684    
  15.664      14.625      13.968      13.968      14.625      15.664      15.193      15.613      15.870      15.994    
  16.029      15.994      15.870      15.613      15.193      14.613      13.962      13.437      13.234      13.437    
  13.962      14.613      15.193      15.613      15.870      15.994      16.028      15.994      15.870      15.613    
  15.193      14.613      13.962      13.437      13.234      13.437      13.962      14.613      13.372      13.806    
  14.183      14.513      14.798      15.005      15.079      14.963      14.613      14.057      13.469      13.089    
  13.089      13.469      14.057      14.613      14.963      15.079      15.005      14.797      14.513      14.183    
  13.806      13.372      12.887      12.399      11.989      11.749      11.749      11.988      12.399      12.887    
  11.634      12.155      12.685      13.211      13.699      14.085      14.298      14.272      13.962      13.469    
  13.018      12.836      13.018      13.469      13.962      14.272      14.298      14.085      13.699      13.211    
  12.685      12.155      11.634      11.130      10.663      10.272      10.008      9.9147      10.008      10.272    
  10.662      11.130      10.110      10.744      11.423      12.112      12.756      13.278      13.606      13.659    
  13.437      13.089      12.836      12.836      13.089      13.437      13.659      13.605      13.278      12.756    
  12.112      11.423      10.744      10.110      9.5383      9.0414      8.6367      8.3469      8.1949      8.1949    
  8.3468      8.6365      9.0412      9.5381      8.8588      9.6052      10.414      11.239      12.014      12.663    
  13.114      13.292      13.234      13.089      13.018      13.089      13.234      13.292      13.114      12.663    
  12.014      11.239      10.414      9.6053      8.8588      8.2013      7.6460      7.2013      6.8752      6.6754    
  6.6080      6.6753      6.8751      7.2012      7.6459      8.2012      7.8954      8.7473      9.6743      10.626    
  11.534      12.328      12.934      13.292      13.437      13.469      13.469      13.437      13.292      12.934    
  12.328      11.534      10.626      9.6743      8.7473      7.8954      7.1496      6.5250      6.0266      5.6547    
  5.4079      5.2849      5.2849      5.4079      5.6546      6.0266      6.5251      7.1496      7.2156      8.1727    
  9.2203      10.307      11.367      12.328      13.114      13.659      13.962      14.057      13.962      13.659    
  13.114      12.328      11.367      10.307      9.2202      8.1727      7.2156      6.3810      5.6836      5.1260    
  4.7036      4.4093      4.2360      4.1789      4.2361      4.4094      4.7038      5.1262      5.6838      6.3810    
  6.8115      7.8843      9.0671      10.307      11.534      12.663      13.606      14.272      14.613      14.613    
  14.272      13.605      12.663      11.534      10.307      9.0669      7.8842      6.8115      5.8807      5.1050    
  4.4839      4.0084      3.6663      3.4458      3.3380      3.3381      3.4460      3.6665      4.0086      4.4841    
  5.1051      5.8807      6.6774      7.8842      9.2203      10.626      12.014      13.278      14.298      14.963    
  15.193      14.963      14.298      13.278      12.014      10.626      9.2202      7.8842      6.6774      5.6345    
  4.7681      4.0746      3.5406      3.1487      2.8821      2.7277      2.6772      2.7278      2.8822      3.1488    
  3.5407      4.0746      4.7681      5.6345      6.8114      8.1726      9.6743      11.239      12.756      14.085    
  15.079      15.613      15.613      15.079      14.085      12.756      11.239      9.6743      8.1727      6.8115    
  5.6345      4.6575      3.8759      3.2723      2.8240      2.5089      2.3090      2.2121      2.2121      2.3090    
  2.5089      2.8240      3.2722      3.8758      4.6575      5.6344      7.2155      8.7472      10.414      12.112    
  13.698      15.005      15.870      16.172      15.870      15.005      13.699      12.112      10.414      8.7473    
  7.2156      5.8807      4.7681      3.8759      3.1849      2.6679      2.2970      2.0485      1.9059      1.8593    
  1.9058      2.0484      2.2968      2.6678      3.1848      3.8758      4.7680      5.8806      7.8953      9.6052    
  11.422      13.211      14.797      15.994      16.639      16.639      15.994      14.797      13.211      11.423    
  9.6053      7.8954      6.3810      5.1050      4.0746      3.2723      2.6679      2.2283      1.9237      1.7321    
  1.6395      1.6395      1.7320      1.9236      2.2281      2.6678      3.2722      4.0745      5.1050      6.3809    
  8.8588      10.744      12.685      14.513      16.028      17.035      17.388      17.035      16.028      14.513    
  12.685      10.744      8.8588      7.1496      5.6836      4.4839      3.5406      2.8240      2.2970      1.9237    
  1.6758      1.5340      1.4877      1.5339      1.6757      1.9236      2.2969      2.8240      3.5406      4.4840    
  5.6837      7.1496      10.110      12.155      14.183      15.994      17.367      18.111      18.111      17.367    
  15.994      14.183      12.155      10.110      8.2013      6.5250      5.1260      4.0084      3.1487      2.5089    
  2.0485      1.7321      1.5340      1.4384      1.4384      1.5339      1.7321      2.0485      2.5090      3.1488    
  4.0086      5.1262      6.5251      8.2013      11.634      13.806      15.870      17.595      18.749      19.156    
  18.749      17.595      15.870      13.806      11.634      9.5383      7.6460      6.0266      4.7036      3.6663    
  2.8821      2.3090      1.9059      1.6395      1.4877      1.4384      1.4878      1.6396      1.9059      2.3091    
  2.8822      3.6664      4.7038      6.0267      7.6461      9.5383      13.372      15.613      17.635      19.182    
  20.023      20.023      19.182      17.635      15.613      13.372      11.130      9.0414      7.2013      5.6547    
  4.4093      3.4458      2.7277      2.2121      1.8593      1.6395      1.5339      1.5339      1.6396      1.8594    
  2.2122      2.7278      3.4459      4.4093      5.6547      7.2013      9.0414      11.130      15.193      17.370    
  19.159      20.336      20.747      20.336      19.159      17.370      15.193      12.887      10.663      8.6367    
  6.8752      5.4079      4.2360      3.3380      2.6772      2.2121      1.9058      1.7320      1.6757      1.7321    
  1.9059      2.2122      2.6772      3.3380      4.2360      5.4078      6.8751      8.6366      10.663      12.887    
  16.683      18.406      19.634      20.273      20.273      19.635      18.406      16.684      14.613      12.399    
  10.272      8.3469      6.6754      5.2849      4.1789      3.3381      2.7278      2.3090      2.0484      1.9236    
  1.9236      2.0485      2.3091      2.7278      3.3380      4.1787      5.2847      6.6753      8.3469      10.272    
  12.399      14.613      16.942      17.781      18.237      18.381      18.238      17.781      16.943      15.664    
  13.962      11.989      10.008      8.1949      6.6080      5.2849      4.2361      3.4460      2.8822      2.5089    
  2.2968      2.2281      2.2969      2.5090      2.8822      3.4459      4.2360      5.2847      6.6079      8.1949    
  10.008      11.989      13.962      15.663      15.144      14.859      14.618      14.618      14.860      15.145    
  15.160      14.625      13.437      11.749      9.9147      8.1949      6.6753      5.4079      4.4094      3.6665    
  3.1488      2.8240      2.6678      2.6678      2.8240      3.1488      3.6664      4.4093      5.4078      6.6753    
  8.1949      9.9147      11.749      13.437      14.625      15.160      11.007      9.7263      9.2315      9.7265    
  11.007      12.543      13.693      13.968      13.234      11.749      10.008      8.3468      6.8751      5.6546    
  4.7038      4.0086      3.5407      3.2722      3.1848      3.2722      3.5406      4.0086      4.7038      5.6547    
  6.8751      8.3469      10.008      11.749      13.234      13.968      13.693      12.543      5.0983      3.3774    
  3.3774      5.0985      7.9360      10.925      13.125      13.968      13.437      11.988      10.272      8.6365    
  7.2012      6.0266      5.1262      4.4841      4.0746      3.8758      3.8758      4.0745      4.4840      5.1262    
  6.0267      7.2013      8.6366      10.272      11.989      13.437      13.968      13.124      10.925      7.9358    
 -1.1766     -2.4731     -1.1767      2.2771      6.7632      10.925      13.693      14.625      13.962      12.399    
  10.662      9.0412      7.6459      6.5251      5.6838      5.1051      4.7681      4.6575      4.7680      5.1050    
  5.6837      6.5251      7.6461      9.0414      10.663      12.399      13.962      14.625      13.693      10.925    
  6.7630      2.2771     -5.9913     -5.9915     -2.8973      2.2771      7.9362      12.544      15.161      15.664    
  14.613      12.887      11.130      9.5381      8.2012      7.1496      6.3810      5.8807      5.6345      5.6344    
  5.8806      6.3809      7.1496      8.2013      9.5383      11.130      12.887      14.613      15.663      15.160    
  12.543      7.9358      2.2771     -2.8970     -5.9915     -2.4732      3.3773      9.7265      14.860      17.781    
  18.407      17.371      15.613      13.806      12.155      10.744      9.6052      8.7473      8.1727      7.8843    
  7.8842      8.1726      8.7472      9.6052      10.744      12.155      13.806      15.613      17.370      18.406    
  17.781      14.860      9.7264      3.3773     -2.4733     -5.9915     -2.4732      2.3629      8.5951      14.361    
  18.285      19.876      19.488      17.968      16.173      14.454      12.927      11.639      10.609      9.8529    
  9.3884      9.2315      9.3884      9.8529      10.609      11.639      12.927      14.454      16.173      17.968    
  19.487      19.876      18.284      14.360      8.5949      2.3627     -2.4733     -4.2985      3.3773      8.5951    
  14.151      18.497      20.796      21.065      19.949      18.306      16.639      15.096      13.737      12.588    
  11.673      11.028      10.692      10.692      11.028      11.673      12.588      13.737      15.095      16.639    
  18.306      19.949      21.065      20.796      18.497      14.151      8.5949      3.3772     0.20704     0.20708    
  9.7265      14.361      18.497      21.108      21.908      21.275      19.939      18.464      17.035      15.720    
  14.541      13.525      12.720      12.196      12.013      12.196      12.720      13.525      14.541      15.719    
  17.035      18.464      19.939      21.276      21.908      21.108      18.497      14.360      9.7263      6.0616    
  4.6667      6.0617      14.860      18.285      20.796      21.908      21.742      20.828      19.685      18.507    
  17.367      16.279      15.256      14.348      13.650      13.264      13.264      13.650      14.348      15.256    
  16.279      17.367      18.507      19.685      20.829      21.742      21.908      20.796      18.285      14.860    
  11.539      9.4901      9.4901      11.539      17.781      19.876      21.065      21.275      20.828      20.115    
  19.305      18.464      17.595      16.686      15.768      14.925      14.312      14.086      14.313      14.925    
  15.768      16.686      17.595      18.464      19.305      20.115      20.829      21.276      21.065      19.876    
  17.781      15.317      13.320      12.552      13.320      15.317      18.407      19.488      19.949      19.939    
  19.685      19.305      18.850      18.307      17.635      16.816      15.893      15.051      14.541      14.541    
  15.051      15.893      16.816      17.635      18.306      18.850      19.305      19.685      19.939      19.949    
  19.487      18.406      16.870      15.342      14.385      14.385      15.342      16.871      17.371      17.968    
  18.306      18.464      18.507      18.464      18.307      17.968      17.371      16.485      15.479      14.668    
  14.356      14.668      15.479      16.485      17.370      17.968      18.306      18.464      18.507      18.464    
  18.306      17.968      17.370      16.485      15.479      14.668      14.356      14.668      15.479      16.486    
  15.613      16.173      16.639      17.035      17.367      17.595      17.635      17.371      16.684      15.664    
  14.625      13.968      13.968      14.625      15.664      16.684      17.370      17.635      17.595      17.367    
  17.035      16.639      16.172      15.613      14.963      14.272      13.659      13.292      13.292      13.659    
  14.272      14.963      13.806      14.454      15.096      15.720      16.279      16.686      16.816      16.485    
  15.664      14.587      13.671      13.311      13.670      14.586      15.664      16.485      16.816      16.686    
  16.279      15.719      15.095      14.454      13.806      13.157      12.532      11.994      11.623      11.490    
  11.623      11.994      12.532      13.157      12.155      12.927      13.737      14.541      15.256      15.768    
  15.893      15.479      14.625      13.671      13.045      13.045      13.670      14.625      15.479      15.893    
  15.768      15.256      14.541      13.737      12.927      12.155      11.441      10.803      10.266      9.8714    
  9.6610      9.6610      9.8713      10.266      10.802      11.441      10.744      11.639      12.588      13.525    
  14.348      14.925      15.051      14.668      13.968      13.311      13.045      13.311      13.967      14.668    
  15.051      14.925      14.348      13.525      12.588      11.639      10.744      9.9406      9.2479      8.6800    
  8.2536      7.9875      7.8968      7.9874      8.2534      8.6798      9.2478      9.9405      9.6052      10.609    
  11.673      12.720      13.650      14.312      14.541      14.356      13.968      13.670      13.670      13.967    
  14.355      14.541      14.312      13.650      12.720      11.673      10.609      9.6053      8.7098      7.9472    
  7.3282      6.8582      6.5415      6.3819      6.3819      6.5414      6.8581      7.3282      7.9471      8.7097    
  8.7473      9.8529      11.028      12.196      13.264      14.086      14.541      14.668      14.625      14.586    
  14.625      14.668      14.541      14.086      13.264      12.196      11.028      9.8529      8.7473      7.7627    
  6.9264      6.2483      5.7279      5.3612      5.1434      5.0712      5.1434      5.3612      5.7280      6.2484    
  6.9265      7.7626      8.1727      9.3884      10.692      12.013      13.264      14.313      15.051      15.479    
  15.664      15.664      15.479      15.051      14.312      13.264      12.013      10.692      9.3883      8.1727    
  7.0948      6.1814      5.4401      4.8664      4.4501      4.1801      4.0475      4.0476      4.1802      4.4503    
  4.8666      5.4402      6.1815      7.0949      7.8843      9.2315      10.692      12.196      13.650      14.925    
  15.893      16.485      16.684      16.485      15.893      14.925      13.650      12.196      10.692      9.2314    
  7.8842      6.6980      5.6969      4.8853      4.2541      3.7875      3.4687      3.2835      3.2228      3.2836    
  3.4689      3.7877      4.2542      4.8853      5.6969      6.6981      7.8842      9.3884      11.028      12.720    
  14.348      15.768      16.816      17.370      17.370      16.816      15.768      14.348      12.720      11.028    
  9.3883      7.8842      6.5664      5.4586      4.5624      3.8642      3.3427      2.9748      2.7410      2.6275    
  2.6276      2.7410      2.9749      3.3427      3.8643      4.5624      5.4586      6.5664      8.1726      9.8529    
  11.673      13.525      15.256      16.686      17.635      17.968      17.635      16.686      15.256      13.525    
  11.673      9.8529      8.1727      6.6980      5.4586      4.4565      3.6751      3.0877      2.6654      2.3825    
  2.2201      2.1672      2.2201      2.3824      2.6653      3.0877      3.6750      4.4564      5.4585      6.6980    
  8.7472      10.609      12.588      14.541      16.279      17.595      18.306      18.306      17.595      16.279    
  14.541      12.588      10.609      8.7473      7.0948      5.6969      4.5624      3.6751      3.0048      2.5167    
  2.1789      1.9667      1.8644      1.8644      1.9666      2.1787      2.5165      3.0047      3.6750      4.5623    
  5.6968      7.0947      9.6052      11.639      13.737      15.719      17.367      18.464      18.850      18.464    
  17.367      15.719      13.737      11.639      9.6053      7.7627      6.1814      4.8853      3.8642      3.0877    
  2.5167      2.1129      1.8453      1.6926      1.6429      1.6925      1.8452      2.1127      2.5166      3.0877    
  3.8642      4.8852      6.1814      7.7626      10.744      12.927      15.095      17.035      18.507      19.305    
  19.305      18.507      17.035      15.095      12.927      10.744      8.7098      6.9264      5.4401      4.2541    
  3.3427      2.6654      2.1789      1.8453      1.6369      1.5366      1.5365      1.6368      1.8452      2.1788    
  2.6654      3.3427      4.2541      5.4402      6.9265      8.7098      12.155      14.454      16.639      18.464    
  19.685      20.115      19.685      18.464      16.639      14.454      12.155      9.9406      7.9472      6.2483    
  4.8664      3.7875      2.9748      2.3825      1.9667      1.6926      1.5366      1.4859      1.5366      1.6926    
  1.9667      2.3825      2.9749      3.7877      4.8666      6.2484      7.9473      9.9406      13.806      16.173    
  18.306      19.939      20.829      20.829      19.939      18.306      16.172      13.806      11.441      9.2479    
  7.3282      5.7279      4.4501      3.4687      2.7410      2.2201      1.8644      1.6429      1.5365      1.5366    
  1.6430      1.8645      2.2202      2.7411      3.4688      4.4502      5.7280      7.3283      9.2480      11.441    
  15.613      17.968      19.949      21.276      21.742      21.276      19.949      17.968      15.613      13.157    
  10.803      8.6800      6.8582      5.3612      4.1801      3.2835      2.6275      2.1672      1.8644      1.6925    
  1.6368      1.6926      1.8645      2.1673      2.6277      3.2835      4.1801      5.3611      6.8582      8.6800    
  10.803      13.157      17.370      19.487      21.065      21.908      21.908      21.065      19.487      17.370    
  14.963      12.532      10.266      8.2536      6.5415      5.1434      4.0475      3.2228      2.6276      2.2201    
  1.9666      1.8452      1.8452      1.9667      2.2202      2.6277      3.2228      4.0474      5.1432      6.5414    
  8.2535      10.266      12.532      14.962      18.406      19.876      20.796      21.108      20.796      19.876    
  18.406      16.485      14.272      11.994      9.8714      7.9875      6.3819      5.0712      4.0476      3.2836    
  2.7410      2.3824      2.1787      2.1127      2.1788      2.3825      2.7411      3.2835      4.0474      5.0710    
  6.3818      7.9874      9.8714      11.994      14.272      16.485      17.781      18.284      18.497      18.497    
  18.285      17.781      16.870      15.479      13.659      11.623      9.6610      7.8968      6.3819      5.1434    
  4.1802      3.4689      2.9749      2.6653      2.5165      2.5166      2.6654      2.9749      3.4688      4.1801    
  5.1432      6.3818      7.8967      9.6609      11.623      13.659      15.479      16.870      14.860      14.360    
  14.151      14.360      14.860      15.317      15.342      14.668      13.292      11.490      9.6610      7.9874    
  6.5414      5.3612      4.4503      3.7877      3.3427      3.0877      3.0047      3.0877      3.3427      3.7877    
  4.4502      5.3611      6.5414      7.9874      9.6609      11.490      13.292      14.668      15.342      15.317    
  9.7264      8.5949      8.5949      9.7263      11.539      13.320      14.385      14.356      13.292      11.623    
  9.8713      8.2534      6.8581      5.7280      4.8666      4.2542      3.8643      3.6750      3.6750      3.8642    
  4.2541      4.8666      5.7280      6.8582      8.2535      9.8714      11.623      13.292      14.356      14.385    
  13.320      11.540      3.3773      2.3627      3.3772      6.0616      9.4901      12.552      14.385      14.668    
  13.659      11.994      10.266      8.6798      7.3282      6.2484      5.4402      4.8853      4.5624      4.4564    
  4.5623      4.8852      5.4402      6.2484      7.3283      8.6800      10.266      11.994      13.659      14.668    
  14.385      12.552      9.4903      6.0618     -2.4733     -2.4733     0.20704      4.6667      9.4901      13.320    
  15.342      15.479      14.272      12.532      10.802      9.2478      7.9471      6.9265      6.1815      5.6969    
  5.4586      5.4585      5.6968      6.1814      6.9265      7.9473      9.2480      10.803      12.532      14.272    
  15.479      15.342      13.320      9.4903      4.6669     0.20717     -5.9915     -4.2985     0.20708      6.0617    
  11.539      15.317      16.871      16.486      14.963      13.157      11.441      9.9405      8.7097      7.7626    
  7.0949      6.6981      6.5664      6.6980      7.0947      7.7626      8.7098      9.9406      11.441      13.157    
  14.962      16.485      16.870      15.317      11.540      6.0618     0.20717     -4.2985     -1.1767      3.3774    
  9.2315      14.618      18.238      19.634      19.159      17.635      15.870      14.183      12.685      11.422    
  10.414      9.6743      9.2203      9.0670      9.2203      9.6743      10.414      11.422      12.685      14.183    
  15.870      17.635      19.159      19.634      18.237      14.618      9.2316      3.3775     -1.1767     -2.8973    
  3.3774      8.5951      14.151      18.497      20.795      21.065      19.950      18.307      16.639      15.096    
  13.737      12.588      11.673      11.028      10.692      10.692      11.028      11.673      12.588      13.737    
  15.096      16.639      18.306      19.949      21.065      20.796      18.497      14.151      8.5950      3.3772    
 0.20700     0.20709      9.2315      14.151      18.565      21.389      22.310      21.715      20.359      18.850    
  17.388      16.043      14.837      13.794      12.967      12.428      12.239      12.428      12.967      13.794    
  14.837      16.043      17.388      18.850      20.359      21.715      22.310      21.389      18.566      14.151    
  9.2313      5.3497      3.8738      5.3500      14.618      18.497      21.389      22.743      22.672      21.739    
  20.539      19.305      18.111      16.969      15.890      14.927      14.181      13.766      13.766      14.181    
  14.927      15.890      16.969      18.110      19.305      20.539      21.739      22.672      22.743      21.389    
  18.497      14.618      10.885      8.5881      8.5882      10.885      18.238      20.795      22.310      22.672    
  22.227      21.458      20.587      19.685      18.749      17.762      16.744      15.789      15.086      14.825    
  15.086      15.789      16.744      17.762      18.749      19.685      20.587      21.458      22.227      22.672    
  22.310      20.796      18.238      15.279      12.898      11.986      12.899      15.279      19.634      21.065    
  21.715      21.739      21.458      21.038      20.539      19.939      19.182      18.210      17.081      16.039    
  15.406      15.406      16.039      17.081      18.210      19.182      19.939      20.539      21.038      21.458    
  21.739      21.715      21.065      19.635      17.653      15.706      14.494      14.494      15.706      17.653    
  19.159      19.950      20.359      20.539      20.587      20.539      20.358      19.949      19.159      17.964    
  16.606      15.514      15.095      15.514      16.606      17.964      19.159      19.949      20.359      20.539    
  20.587      20.539      20.359      19.949      19.159      17.964      16.606      15.514      15.095      15.514    
  16.606      17.964      17.635      18.307      18.850      19.305      19.685      19.939      19.949      19.488    
  18.406      16.871      15.342      14.385      14.385      15.342      16.870      18.406      19.487      19.949    
  19.939      19.685      19.305      18.850      18.306      17.635      16.816      15.893      15.051      14.541    
  14.541      15.051      15.893      16.816      15.870      16.639      17.388      18.111      18.749      19.182    
  19.159      18.406      16.943      15.161      13.693      13.125      13.693      15.160      16.943      18.406    
  19.159      19.182      18.749      18.111      17.388      16.639      15.870      15.079      14.298      13.606    
  13.114      12.934      13.114      13.606      14.298      15.079      14.183      15.096      16.043      16.969    
  17.762      18.210      17.964      16.871      15.161      13.409      12.302      12.302      13.409      15.160    
  16.870      17.964      18.211      17.762      16.969      16.043      15.096      14.183      13.325      12.539    
  11.862      11.355      11.080      11.080      11.354      11.862      12.539      13.325      12.685      13.737    
  14.837      15.890      16.744      17.081      16.606      15.342      13.693      12.302      11.759      12.302    
  13.693      15.342      16.606      17.081      16.744      15.890      14.837      13.737      12.685      11.728    
  10.889      10.187      9.6492      9.3084      9.1912      9.3082      9.6490      10.187      10.889      11.728    
  11.422      12.588      13.794      14.927      15.789      16.039      15.514      14.385      13.125      12.302    
  12.302      13.124      14.385      15.514      16.039      15.789      14.927      13.794      12.588      11.423    
  10.366      9.4539      8.7022      8.1220      7.7253      7.5234      7.5234      7.7252      8.1219      8.7020    
  9.4538      10.366      10.414      11.673      12.967      14.181      15.086      15.406      15.095      14.385    
  13.693      13.409      13.693      14.385      15.095      15.406      15.086      14.181      12.967      11.673    