unknown system                          
   1.00000000000000     
     0.000000    2.715000    2.715000
     2.715000    0.000000    2.715000
     2.715000    2.715000    0.000000
   Si
     2
Direct
  0.000000  0.000000  0.000000
  0.250000  0.250000  0.250000
 
   32   32   32
 -.77984701712E+01 -.59914995173E+01 -.11766831962E+01 0.50985594845E+01 0.11007627742E+02
 0.15144960222E+02 0.16942952794E+02 0.16683833401E+02 0.15193319392E+02 0.13371924479E+02
 0.11633726859E+02 0.10109898623E+02 0.88587995289E+01 0.78953724356E+01 0.72155973206E+01
 0.68115172065E+01 0.66774395152E+01 0.68114303741E+01 0.72154717278E+01 0.78952912573E+01
 0.88588282370E+01 0.10110018427E+02 0.11633831393E+02 0.13371894115E+02 0.15193089332E+02
 0.16683395288E+02 0.16942341433E+02 0.15144285830E+02 0.11007090089E+02 0.50983390152E+01
 -.11765985907E+01 -.59913392766E+01 -.59914995173E+01 -.24731561314E+01 0.33774813485E+01
 0.97266639380E+01 0.14859999096E+02 0.17781035670E+02 0.18406390978E+02 0.17370457493E+02
 0.15612733889E+02 0.13806231996E+02 0.12154791540E+02 0.10743805446E+02 0.96052056501E+01
 0.87472773283E+01 0.81726921775E+01 0.78842698991E+01 0.78842306864E+01 0.81726114585E+01
 0.87472192239E+01 0.96051902161E+01 0.10743804604E+02 0.12154772852E+02 0.13806171027E+02
 0.15612594183E+02 0.17370191465E+02 0.18405977633E+02 0.17780518615E+02 0.14859494311E+02
 0.97263127479E+01 0.33773547625E+01 -.24731253781E+01 -.59914629021E+01 -.11766831962E+01
 0.33774813485E+01 0.92316771099E+01 0.14618402504E+02 0.18237654744E+02 0.19634482962E+02
 0.19159371526E+02 0.17634864176E+02 0.15869819923E+02 0.14182965713E+02 0.12685033082E+02
 0.11422540041E+02 0.10414082305E+02 0.96742850837E+01 0.92203237298E+01 0.90670505275E+01
 0.92203207219E+01 0.96742850360E+01 0.10414073353E+02 0.11422490772E+02 0.12684926755E+02
 0.14182826618E+02 0.15869694731E+02 0.17634774694E+02 0.19159283359E+02 0.19634327595E+02
 0.18237400008E+02 0.14618109860E+02 0.92314639972E+01 0.33774071818E+01 -.11766750195E+01
 -.28972616972E+01 0.50985594845E+01 0.97266639380E+01 0.14618402504E+02 0.18380606316E+02
 0.20272873128E+02 0.20336139976E+02 0.19182248198E+02 0.17594979237E+02 0.15993855013E+02
 0.14513373353E+02 0.13211407010E+02 0.12112282576E+02 0.11239207192E+02 0.10625635878E+02
 0.10307342236E+02 0.10307367744E+02 0.10625695004E+02 0.11239257555E+02 0.12112270810E+02
 0.13211286238E+02 0.14513149616E+02 0.15993631076E+02 0.17594902402E+02 0.19182370005E+02
 0.20336346868E+02 0.20272990577E+02 0.18380558128E+02 0.14618248731E+02 0.97265083880E+01
 0.50984614477E+01 0.22770647744E+01 0.22770961059E+01 0.11007627742E+02 0.14859999096E+02
 0.18237654744E+02 0.20272873128E+02 0.20746872206E+02 0.20022728915E+02 0.18749163104E+02
 0.17367340445E+02 0.16028580582E+02 0.14797587994E+02 0.13698540507E+02 0.12755661442E+02
 0.12014125192E+02 0.11534053341E+02 0.11367253873E+02 0.11534102619E+02 0.12014215055E+02
 0.12755729164E+02 0.13698479652E+02 0.14797348742E+02 0.16028255515E+02 0.17367121028E+02
 0.18749193638E+02 0.20022998485E+02 0.20747232851E+02 0.20273142512E+02 0.18237714065E+02
 0.14859843295E+02 0.11007367590E+02 0.79359813251E+01 0.67631594230E+01 0.79361753175E+01
 0.15144960222E+02 0.17781035670E+02 0.19634482962E+02 0.20336139976E+02 0.20022728915E+02
 0.19155972905E+02 0.18110832064E+02 0.17035094778E+02 0.15993844451E+02 0.15005227728E+02
 0.14084655032E+02 0.13277725738E+02 0.12663429939E+02 0.12328123179E+02 0.12328135977E+02
 0.12663482619E+02 0.13277806890E+02 0.14084669619E+02 0.15005065997E+02 0.15993512051E+02
 0.17034734542E+02 0.18110621500E+02 0.19156012424E+02 0.20022991662E+02 0.20336477862E+02
 0.19634691645E+02 0.17780979900E+02 0.15144676822E+02 0.12543399432E+02 0.10925344529E+02
 0.10925481219E+02 0.12543717408E+02 0.16942952794E+02 0.18406390978E+02 0.19159371526E+02
 0.19182248198E+02 0.18749163104E+02 0.18110832064E+02 0.17388436709E+02 0.16638976869E+02
 0.15869819923E+02 0.15078996144E+02 0.14297671009E+02 0.13605577041E+02 0.13113966282E+02
 0.12934332587E+02 0.13113974598E+02 0.13605598005E+02 0.14297678825E+02 0.15078918556E+02
 0.15869584812E+02 0.16638599700E+02 0.17388046897E+02 0.18110588149E+02 0.18749134080E+02
 0.19182366740E+02 0.19159489960E+02 0.18406371662E+02 0.16942750167E+02 0.15160369771E+02
 0.13692756729E+02 0.13124617276E+02 0.13692981170E+02 0.15160671479E+02 0.16683833401E+02
 0.17370457493E+02 0.17634864176E+02 0.17594979237E+02 0.17367340445E+02 0.17035094778E+02
 0.16638976869E+02 0.16172744725E+02 0.15612776172E+02 0.14962668030E+02 0.14271969128E+02
 0.13658914589E+02 0.13291752152E+02 0.13291746785E+02 0.13658893371E+02 0.14271923605E+02
 0.14962585971E+02 0.15612625405E+02 0.16172481536E+02 0.16638605589E+02 0.17034700018E+02
 0.17367032017E+02 0.17594809469E+02 0.17634794962E+02 0.17370399706E+02 0.16683705913E+02
 0.15663675751E+02 0.14625130459E+02 0.13967810593E+02 0.13967902565E+02 0.14625344837E+02
 0.15663887444E+02 0.15193319392E+02 0.15612733889E+02 0.15869819923E+02 0.15993855013E+02
 0.16028580582E+02 0.15993844451E+02 0.15869819923E+02 0.15612776172E+02 0.15193410043E+02
 0.14613173782E+02 0.13962188542E+02 0.13436752877E+02 0.13234170949E+02 0.13436734024E+02
 0.13962123789E+02 0.14613055842E+02 0.15193264451E+02 0.15612613347E+02 0.15869599795E+02
 0.15993528198E+02 0.16028204546E+02 0.15993518623E+02 0.15869599795E+02 0.15612619682E+02
 0.15193248220E+02 0.14613018181E+02 0.13962123789E+02 0.13436826305E+02 0.13234324462E+02
 0.13436865296E+02 0.13962188542E+02 0.14613087504E+02 0.13371924479E+02 0.13806231996E+02
 0.14182965713E+02 0.14513373353E+02 0.14797587994E+02 0.15005227728E+02 0.15078996144E+02
 0.14962668030E+02 0.14613173782E+02 0.14057162526E+02 0.13468854924E+02 0.13089162878E+02
 0.13089168224E+02 0.13468828104E+02 0.14057048030E+02 0.14613002429E+02 0.14962522868E+02
 0.15078895525E+02 0.15005099585E+02 0.14797374537E+02 0.14513107624E+02 0.14182731985E+02
 0.13806089524E+02 0.13371887350E+02 0.12887289967E+02 0.12399078063E+02 0.11988577734E+02
 0.11748972580E+02 0.11748918578E+02 0.11988450834E+02 0.12398954509E+02 0.12887231762E+02
 0.11633726859E+02 0.12154791540E+02 0.12685033082E+02 0.13211407010E+02 0.13698540507E+02
 0.14084655032E+02 0.14297671009E+02 0.14271969128E+02 0.13962188542E+02 0.13468854924E+02
 0.13017884647E+02 0.12836063131E+02 0.13017903383E+02 0.13468800562E+02 0.13962024149E+02
 0.14271785814E+02 0.14297582111E+02 0.14084658837E+02 0.13698535470E+02 0.13211325414E+02
 0.12684910821E+02 0.12154717844E+02 0.11633759880E+02 0.11129705968E+02 0.10662610396E+02
 0.10271915575E+02 0.10008255282E+02 0.99146844486E+01 0.10008127348E+02 0.10271711777E+02
 0.10662405131E+02 0.11129565889E+02 0.10109898623E+02 0.10743805446E+02 0.11422540041E+02
 0.12112282576E+02 0.12755661442E+02 0.13277725738E+02 0.13605577041E+02 0.13658914589E+02
 0.13436752877E+02 0.13089162878E+02 0.12836063131E+02 0.12836076121E+02 0.13089150538E+02
 0.13436637117E+02 0.13658716274E+02 0.13605419713E+02 0.13277705170E+02 0.12755739352E+02
 0.12112347323E+02 0.11422545162E+02 0.10743810761E+02 0.10109982107E+02 0.95382666566E+01
 0.90414079761E+01 0.86366558737E+01 0.83469212542E+01 0.81949218074E+01 0.81948748584E+01
 0.83467924313E+01 0.86364722308E+01 0.90412051958E+01 0.95380980672E+01 0.88587995289E+01
 0.96052056501E+01 0.10414082305E+02 0.11239207192E+02 0.12014125192E+02 0.12663429939E+02
 0.13113966282E+02 0.13291752152E+02 0.13234170949E+02 0.13089168224E+02 0.13017903383E+02
 0.13089150538E+02 0.13234079842E+02 0.13291564243E+02 0.13113748404E+02 0.12663291466E+02
 0.12014116310E+02 0.11239282395E+02 0.10414162647E+02 0.96052527999E+01 0.88588332594E+01
 0.82012581121E+01 0.76459740666E+01 0.72013414007E+01 0.68752011997E+01 0.66754078239E+01
 0.66080215271E+01 0.66753356031E+01 0.68750823157E+01 0.72012146207E+01 0.76458739758E+01
 0.82011995873E+01 0.78953724356E+01 0.87472773283E+01 0.96742850837E+01 0.10625635878E+02
 0.11534053341E+02 0.12328123179E+02 0.12934332587E+02 0.13291746785E+02 0.13436734024E+02
 0.13468828104E+02 0.13468800562E+02 0.13436637117E+02 0.13291564243E+02 0.12934089152E+02
 0.12327890916E+02 0.11533906651E+02 0.10625599627E+02 0.96743202758E+01 0.87473103368E+01
 0.78953511406E+01 0.71495755218E+01 0.65249967359E+01 0.60266047105E+01 0.56546638622E+01
 0.54078900767E+01 0.52849104036E+01 0.52848979303E+01 0.54078623310E+01 0.56546484172E+01
 0.60266310966E+01 0.65250655058E+01 0.71496452790E+01 0.72155973206E+01 0.81726921775E+01
 0.92203237298E+01 0.10307342236E+02 0.11367253873E+02 0.12328135977E+02 0.13113974598E+02
 0.13658893371E+02 0.13962123789E+02 0.14057048030E+02 0.13962024149E+02 0.13658716274E+02
 0.13113748404E+02 0.12327890916E+02 0.11367030423E+02 0.10307182439E+02 0.92202429124E+01
 0.81726594447E+01 0.72155585614E+01 0.63809673647E+01 0.56836390449E+01 0.51260130604E+01
 0.47036110299E+01 0.44092778109E+01 0.42360291137E+01 0.41789054897E+01 0.42361106629E+01
 0.44094175752E+01 0.47037759300E+01 0.51261730283E+01 0.56837688146E+01 0.63810495126E+01
 0.68115172065E+01 0.78842698991E+01 0.90670505275E+01 0.10307367744E+02 0.11534102619E+02
 0.12663482619E+02 0.13605598005E+02 0.14271923605E+02 0.14613055842E+02 0.14613002429E+02
 0.14271785814E+02 0.13605419713E+02 0.12663291466E+02 0.11533906651E+02 0.10307182439E+02
 0.90669079574E+01 0.78841921302E+01 0.68114887582E+01 0.58806824154E+01 0.51050475384E+01
 0.44839311033E+01 0.40084001194E+01 0.36662784913E+01 0.34458158621E+01 0.33380333966E+01
 0.33381007384E+01 0.34459940268E+01 0.36665082802E+01 0.40086151631E+01 0.44840840766E+01
 0.51051256874E+01 0.58807103417E+01 0.66774395152E+01 0.78842306864E+01 0.92203207219E+01
 0.10625695004E+02 0.12014215055E+02 0.13277806890E+02 0.14297678825E+02 0.14962585971E+02
 0.15193264451E+02 0.14962522868E+02 0.14297582111E+02 0.13277705170E+02 0.12014116310E+02
 0.10625599627E+02 0.92202429124E+01 0.78841921302E+01 0.66774430065E+01 0.56345007725E+01
 0.47680670467E+01 0.40745824645E+01 0.35405798602E+01 0.31486625170E+01 0.28821060904E+01
 0.27277121173E+01 0.26772087101E+01 0.27277854726E+01 0.28822257016E+01 0.31487898629E+01
 0.35406808163E+01 0.40746362517E+01 0.47680726968E+01 0.56344823666E+01 0.68114303741E+01
 0.81726114585E+01 0.96742850360E+01 0.11239257555E+02 0.12755729164E+02 0.14084669619E+02
 0.15078918556E+02 0.15612625405E+02 0.15612613347E+02 0.15078895525E+02 0.14084658837E+02
 0.12755739352E+02 0.11239282395E+02 0.96743202758E+01 0.81726594447E+01 0.68114887582E+01
 0.56345007725E+01 0.46575097599E+01 0.38758634325E+01 0.32722564203E+01 0.28240159405E+01
 0.25089369356E+01 0.23090062020E+01 0.22120535754E+01 0.22120550590E+01 0.23090027138E+01
 0.25089150728E+01 0.28239741241E+01 0.32722059428E+01 0.38758129069E+01 0.46574570147E+01
 0.56344422054E+01 0.72154717278E+01 0.87472192239E+01 0.10414073353E+02 0.12112270810E+02
 0.13698479652E+02 0.15005065997E+02 0.15869584812E+02 0.16172481536E+02 0.15869599795E+02
 0.15005099585E+02 0.13698535470E+02 0.12112347323E+02 0.10414162647E+02 0.87473103368E+01
 0.72155585614E+01 0.58806824154E+01 0.47680670467E+01 0.38758634325E+01 0.31849080746E+01
 0.26679152552E+01 0.22969614042E+01 0.20485220530E+01 0.19058523315E+01 0.18593104111E+01
 0.19057985535E+01 0.20484264126E+01 0.22968417075E+01 0.26677886993E+01 0.31847877200E+01
 0.38757569095E+01 0.47679743931E+01 0.58805968488E+01 0.78952912573E+01 0.96051902161E+01
 0.11422490772E+02 0.13211286238E+02 0.14797348742E+02 0.15993512051E+02 0.16638599700E+02
 0.16638605589E+02 0.15993528198E+02 0.14797374537E+02 0.13211325414E+02 0.11422545162E+02
 0.96052527999E+01 0.78953511406E+01 0.63809673647E+01 0.51050475384E+01 0.40745824645E+01
 0.32722564203E+01 0.26679152552E+01 0.22282554993E+01 0.19237107485E+01 0.17321140672E+01
 0.16395352960E+01 0.16394863500E+01 0.17319912841E+01 0.19235660323E+01 0.22281295594E+01
 0.26678187358E+01 0.32721816302E+01 0.40745209546E+01 0.51049937973E+01 0.63809137521E+01
 0.88588282370E+01 0.10743804604E+02 0.12684926755E+02 0.14513149616E+02 0.16028255515E+02
 0.17034734542E+02 0.17388046897E+02 0.17034700018E+02 0.16028204546E+02 0.14513107624E+02
 0.12684910821E+02 0.10743810761E+02 0.88588332594E+01 0.71495755218E+01 0.56836390449E+01
 0.44839311033E+01 0.35405798602E+01 0.28240159405E+01 0.22969614042E+01 0.19237107485E+01
 0.16757833708E+01 0.15339642211E+01 0.14877475691E+01 0.15338828406E+01 0.16756561080E+01
 0.19235909730E+01 0.22968949383E+01 0.28240209747E+01 0.35406410958E+01 0.44840110932E+01
 0.56836994444E+01 0.71495982833E+01 0.10110018427E+02 0.12154772852E+02 0.14182826618E+02
 0.15993631076E+02 0.17367121028E+02 0.18110621500E+02 0.18110588149E+02 0.17367032017E+02
 0.15993518623E+02 0.14182731985E+02 0.12154717844E+02 0.10109982107E+02 0.82012581121E+01
 0.65249967359E+01 0.51260130604E+01 0.40084001194E+01 0.31486625170E+01 0.25089369356E+01
 0.20485220530E+01 0.17321140672E+01 0.15339642211E+01 0.14384153064E+01 0.14383939484E+01
 0.15339126579E+01 0.17320622281E+01 0.20485035183E+01 0.25089797673E+01 0.31487794504E+01
 0.40085740001E+01 0.51261936385E+01 0.65251295124E+01 0.82013261404E+01 0.11633831393E+02
 0.13806171027E+02 0.15869694731E+02 0.17594902402E+02 0.18749193638E+02 0.19156012424E+02
 0.18749134080E+02 0.17594809469E+02 0.15869599795E+02 0.13806089524E+02 0.11633759880E+02
 0.95382666566E+01 0.76459740666E+01 0.60266047105E+01 0.47036110299E+01 0.36662784913E+01
 0.28821060904E+01 0.23090062020E+01 0.19058523315E+01 0.16395352960E+01 0.14877475691E+01
 0.14383939484E+01 0.14877530339E+01 0.16395575133E+01 0.19059076078E+01 0.23091043995E+01
 0.28822407390E+01 0.36664280611E+01 0.47037510677E+01 0.60267210883E+01 0.76460655096E+01
 0.95383413499E+01 0.13371894115E+02 0.15612594183E+02 0.17634774694E+02 0.19182370005E+02
 0.20022998485E+02 0.20022991662E+02 0.19182366740E+02 0.17634794962E+02 0.15612619682E+02
 0.13371887350E+02 0.11129705968E+02 0.90414079761E+01 0.72013414007E+01 0.56546638622E+01
 0.44092778109E+01 0.34458158621E+01 0.27277121173E+01 0.22120535754E+01 0.18593104111E+01
 0.16394863500E+01 0.15338828406E+01 0.15339126579E+01 0.16395575133E+01 0.18593956351E+01
 0.22121510801E+01 0.27278262411E+01 0.34459188605E+01 0.44093272244E+01 0.56546602499E+01
 0.72013347053E+01 0.90414349152E+01 0.11129744632E+02 0.15193089332E+02 0.17370191465E+02
 0.19159283359E+02 0.20336346868E+02 0.20747232851E+02 0.20336477862E+02 0.19159489960E+02
 0.17370399706E+02 0.15193248220E+02 0.12887289967E+02 0.10662610396E+02 0.86366558737E+01
 0.68752011997E+01 0.54078900767E+01 0.42360291137E+01 0.33380333966E+01 0.26772087101E+01
 0.22120550590E+01 0.19057985535E+01 0.17319912841E+01 0.16756561080E+01 0.17320622281E+01
 0.19059076078E+01 0.22121510801E+01 0.26772484193E+01 0.33380059704E+01 0.42359591964E+01
 0.54078158408E+01 0.68751449302E+01 0.86366127785E+01 0.10662554317E+02 0.12887191040E+02
 0.16683395288E+02 0.18405977633E+02 0.19634327595E+02 0.20272990577E+02 0.20273142512E+02
 0.19634691645E+02 0.18406371662E+02 0.16683705913E+02 0.14613018181E+02 0.12399078063E+02
 0.10271915575E+02 0.83469212542E+01 0.66754078239E+01 0.52849104036E+01 0.41789054897E+01
 0.33381007384E+01 0.27277854726E+01 0.23090027138E+01 0.20484264126E+01 0.19235660323E+01
 0.19235909730E+01 0.20485035183E+01 0.23091043995E+01 0.27278262411E+01 0.33380059704E+01
 0.41787087690E+01 0.52847333048E+01 0.66753286467E+01 0.83469004395E+01 0.10271862242E+02
 0.12398947154E+02 0.14612803864E+02 0.16942341433E+02 0.17780518615E+02 0.18237400008E+02
 0.18380558128E+02 0.18237714065E+02 0.17780979900E+02 0.16942750167E+02 0.15663675751E+02
 0.13962123789E+02 0.11988577734E+02 0.10008255282E+02 0.81949218074E+01 0.66080215271E+01
 0.52848979303E+01 0.42361106629E+01 0.34459940268E+01 0.28822257016E+01 0.25089150728E+01
 0.22968417075E+01 0.22281295594E+01 0.22968949383E+01 0.25089797673E+01 0.28822407390E+01
 0.34459188605E+01 0.42359591964E+01 0.52847333048E+01 0.66079090654E+01 0.81948817878E+01
 0.10008256115E+02 0.11988560860E+02 0.13962020087E+02 0.15663423903E+02 0.15144285830E+02
 0.14859494311E+02 0.14618109860E+02 0.14618248731E+02 0.14859843295E+02 0.15144676822E+02
 0.15160369771E+02 0.14625130459E+02 0.13436826305E+02 0.11748972580E+02 0.99146844486E+01
 0.81948748584E+01 0.66753356031E+01 0.54078623310E+01 0.44094175752E+01 0.36665082802E+01
 0.31487898629E+01 0.28239741241E+01 0.26677886993E+01 0.26678187358E+01 0.28240209747E+01
 0.31487794504E+01 0.36664280611E+01 0.44093272244E+01 0.54078158408E+01 0.66753286467E+01
 0.81948817878E+01 0.99147132803E+01 0.11749038461E+02 0.13436879529E+02 0.14625060399E+02
 0.15160107412E+02 0.11007090089E+02 0.97263127479E+01 0.92314639972E+01 0.97265083880E+01
 0.11007367590E+02 0.12543399432E+02 0.13692756729E+02 0.13967810593E+02 0.13234324462E+02
 0.11748918578E+02 0.10008127348E+02 0.83467924313E+01 0.68750823157E+01 0.56546484172E+01
 0.47037759300E+01 0.40086151631E+01 0.35406808163E+01 0.32722059428E+01 0.31847877200E+01
 0.32721816302E+01 0.35406410958E+01 0.40085740001E+01 0.47037510677E+01 0.56546602499E+01
 0.68751449302E+01 0.83469004395E+01 0.10008256115E+02 0.11749038461E+02 0.13234408190E+02
 0.13967823281E+02 0.13692656149E+02 0.12543175901E+02 0.50983390152E+01 0.33773547625E+01
 0.33774071818E+01 0.50984614477E+01 0.79359813251E+01 0.10925344529E+02 0.13124617276E+02
 0.13967902565E+02 0.13436865296E+02 0.11988450834E+02 0.10271711777E+02 0.86364722308E+01
 0.72012146207E+01 0.60266310966E+01 0.51261730283E+01 0.44840840766E+01 0.40746362517E+01
 0.38758129069E+01 0.38757569095E+01 0.40745209546E+01 0.44840110932E+01 0.51261936385E+01
 0.60267210883E+01 0.72013347053E+01 0.86366127785E+01 0.10271862242E+02 0.11988560860E+02
 0.13436879529E+02 0.13967823281E+02 0.13124496423E+02 0.10925216486E+02 0.79358463273E+01
 -.11765985907E+01 -.24731253781E+01 -.11766750195E+01 0.22770647744E+01 0.67631594230E+01
 0.10925481219E+02 0.13692981170E+02 0.14625344837E+02 0.13962188542E+02 0.12398954509E+02
 0.10662405131E+02 0.90412051958E+01 0.76458739758E+01 0.65250655058E+01 0.56837688146E+01
 0.51051256874E+01 0.47680726968E+01 0.46574570147E+01 0.47679743931E+01 0.51049937973E+01
 0.56836994444E+01 0.65251295124E+01 0.76460655096E+01 0.90414349152E+01 0.10662554317E+02
 0.12398947154E+02 0.13962020087E+02 0.14625060399E+02 0.13692656149E+02 0.10925216486E+02
 0.67630441621E+01 0.22770998626E+01 -.59913392766E+01 -.59914629021E+01 -.28972616972E+01
 0.22770961059E+01 0.79361753175E+01 0.12543717408E+02 0.15160671479E+02 0.15663887444E+02
 0.14613087504E+02 0.12887231762E+02 0.11129565889E+02 0.95380980672E+01 0.82011995873E+01
 0.71496452790E+01 0.63810495126E+01 0.58807103417E+01 0.56344823666E+01 0.56344422054E+01
 0.58805968488E+01 0.63809137521E+01 0.71495982833E+01 0.82013261404E+01 0.95383413499E+01
 0.11129744632E+02 0.12887191040E+02 0.14612803864E+02 0.15663423903E+02 0.15160107412E+02
 0.12543175901E+02 0.79358463273E+01 0.22770998626E+01 -.28970499691E+01 -.59914778934E+01
 -.24731800944E+01 0.33773257212E+01 0.97264590264E+01 0.14859901731E+02 0.17781111031E+02
 0.18406569507E+02 0.17370618958E+02 0.15612797796E+02 0.13806189811E+02 0.12154694237E+02
 0.10743723882E+02 0.96051799576E+01 0.87472939834E+01 0.81727114157E+01 0.78842706568E+01
 0.78842237965E+01 0.81726154670E+01 0.87472346283E+01 0.96052021694E+01 0.10743805990E+02
 0.12154772181E+02 0.13806171371E+02 0.15612582373E+02 0.17370172957E+02 0.18406006887E+02
 0.17780644342E+02 0.14859663663E+02 0.97263879821E+01 0.33772682004E+01 -.24732754485E+01
 -.59915301046E+01 -.24731800944E+01 0.23629022952E+01 0.85950684306E+01 0.14360588921E+02
 0.18284715278E+02 0.19876376752E+02 0.19487657155E+02 0.17967884898E+02 0.16172687853E+02
 0.14453982686E+02 0.12926737225E+02 0.11638788851E+02 0.10609111326E+02 0.98529099629E+01
 0.93883972042E+01 0.92314661353E+01 0.93883951550E+01 0.98528936671E+01 0.10609082527E+02
 0.11638768223E+02 0.12926728380E+02 0.14453942590E+02 0.16172549655E+02 0.17967619007E+02
 0.19487307463E+02 0.19876032038E+02 0.18284437239E+02 0.14360370709E+02 0.85948649571E+01
 0.23627058783E+01 -.24733115556E+01 -.42984706799E+01 0.33773257212E+01 0.85950684306E+01
 0.14151309954E+02 0.18497066769E+02 0.20795694358E+02 0.21064698384E+02 0.19949484783E+02
 0.18306464595E+02 0.16638796470E+02 0.15095620758E+02 0.13737339073E+02 0.12588379336E+02
 0.11673011443E+02 0.11027760439E+02 0.10692304407E+02 0.10692347685E+02 0.11027843370E+02
 0.11673043178E+02 0.12588316472E+02 0.13737216637E+02 0.15095499787E+02 0.16638704565E+02
 0.18306395143E+02 0.19949426376E+02 0.21064635049E+02 0.20795590734E+02 0.18496891129E+02
 0.14151083054E+02 0.85948603964E+01 0.33771946235E+01 0.20704151759E+00 0.20708350932E+00
 0.97264590264E+01 0.14360588921E+02 0.18497066769E+02 0.21108396600E+02 0.21907505011E+02
 0.21275296749E+02 0.19939205738E+02 0.18464353420E+02 0.17034879305E+02 0.15719557521E+02
 0.14541300851E+02 0.13524530085E+02 0.12719638172E+02 0.12195825927E+02 0.12013364863E+02
 0.12195976199E+02 0.12719784848E+02 0.13524527371E+02 0.14541137749E+02 0.15719334536E+02
 0.17034715729E+02 0.18464332402E+02 0.19939345600E+02 0.21275522573E+02 0.21907671921E+02
 0.21108395624E+02 0.18496914377E+02 0.14360399547E+02 0.97263313709E+01 0.60616137637E+01
 0.46667228037E+01 0.60616639762E+01 0.14859901731E+02 0.18284715278E+02 0.20795694358E+02
 0.21907505011E+02 0.21741967033E+02 0.20828423055E+02 0.19684772870E+02 0.18507293505E+02
 0.17367243081E+02 0.16279288969E+02 0.15255946734E+02 0.14348313074E+02 0.13649850182E+02
 0.13264351893E+02 0.13264454505E+02 0.13650056651E+02 0.14348422452E+02 0.15255845999E+02
 0.16279026988E+02 0.17366967851E+02 0.18507157010E+02 0.19684863749E+02 0.20828715718E+02
 0.21742312900E+02 0.21907717060E+02 0.20795683810E+02 0.18284545087E+02 0.14859706830E+02
 0.11539351182E+02 0.94900633993E+01 0.94901036771E+01 0.11539477696E+02 0.17781111031E+02
 0.19876376752E+02 0.21064698384E+02 0.21275296749E+02 0.20828423055E+02 0.20114672790E+02
 0.19304827685E+02 0.18464494689E+02 0.17595053409E+02 0.16686044975E+02 0.15767798994E+02
 0.14925322127E+02 0.14312401255E+02 0.14086199634E+02 0.14312528320E+02 0.14925461872E+02
 0.15767799503E+02 0.16685836053E+02 0.17594715613E+02 0.18464207922E+02 0.19304741773E+02
 0.20114810996E+02 0.20828683951E+02 0.21275522249E+02 0.21064759981E+02 0.19876248707E+02
 0.17780879532E+02 0.15316986418E+02 0.13319998589E+02 0.12551797038E+02 0.13320113700E+02
 0.15317197924E+02 0.18406569507E+02 0.19487657155E+02 0.19949484783E+02 0.19939205738E+02
 0.19684772870E+02 0.19304827685E+02 0.18850199809E+02 0.18306624190E+02 0.17635017934E+02
 0.16815835553E+02 0.15892602897E+02 0.15050798093E+02 0.14541446582E+02 0.14541467764E+02
 0.15050832957E+02 0.15892582188E+02 0.16815689409E+02 0.17634734631E+02 0.18306283181E+02
 0.18849936870E+02 0.19304737503E+02 0.19684825472E+02 0.19939269908E+02 0.19949441929E+02
 0.19487487678E+02 0.18406337332E+02 0.16870433814E+02 0.15341707105E+02 0.14384759710E+02
 0.14384810185E+02 0.15341851796E+02 0.16870648449E+02 0.17370618958E+02 0.17967884898E+02
 0.18306464595E+02 0.18464353420E+02 0.18507293505E+02 0.18464494689E+02 0.18306624190E+02
 0.17967946865E+02 0.17370576675E+02 0.16485475968E+02 0.15479409042E+02 0.14667966965E+02
 0.14355671836E+02 0.14667860324E+02 0.15479240446E+02 0.16485288625E+02 0.17370364919E+02
 0.17967678696E+02 0.18306319399E+02 0.18464239101E+02 0.18507144861E+02 0.18464254811E+02
 0.18306311427E+02 0.17967651773E+02 0.17370376538E+02 0.16485353666E+02 0.15479288974E+02
 0.14667823596E+02 0.14355570909E+02 0.14667887468E+02 0.15479410949E+02 0.16485540252E+02
 0.15612797796E+02 0.16172687853E+02 0.16638796470E+02 0.17034879305E+02 0.17367243081E+02
 0.17595053409E+02 0.17635017934E+02 0.17370576675E+02 0.16683897307E+02 0.15663940910E+02
 0.14625403956E+02 0.13967933420E+02 0.13967784900E+02 0.14625064206E+02 0.15663609936E+02
 0.16683669009E+02 0.17370392816E+02 0.17634802009E+02 0.17594815768E+02 0.17367034395E+02
 0.17034701405E+02 0.16638604715E+02 0.16172472775E+02 0.15612607260E+02 0.14962567463E+02
 0.14271924571E+02 0.13658934044E+02 0.13291823857E+02 0.13291827386E+02 0.13658949819E+02
 0.14271975480E+02 0.14962687105E+02 0.13806189811E+02 0.14453982686E+02 0.15095620758E+02
 0.15719557521E+02 0.16279288969E+02 0.16686044975E+02 0.16815835553E+02 0.16485475968E+02
 0.15663940910E+02 0.14586699680E+02 0.13670825995E+02 0.13311492259E+02 0.13670463695E+02
 0.14586215165E+02 0.15663580486E+02 0.16485297188E+02 0.16815740606E+02 0.16685942857E+02
 0.16279167643E+02 0.15719434491E+02 0.15095496154E+02 0.14453855921E+02 0.13806093552E+02
 0.13156726682E+02 0.12532440313E+02 0.11994063828E+02 0.11623105225E+02 0.11489990506E+02
 0.11623030080E+02 0.11993960700E+02 0.12532376572E+02 0.13156747106E+02 0.12154694237E+02
 0.12926737225E+02 0.13737339073E+02 0.14541300851E+02 0.15255946734E+02 0.15767798994E+02
 0.15892602897E+02 0.15479409042E+02 0.14625403956E+02 0.13670825995E+02 0.13045325295E+02
 0.13045115475E+02 0.13670334253E+02 0.14624920460E+02 0.15479136156E+02 0.15892535835E+02
 0.15767812129E+02 0.15255949881E+02 0.14541287613E+02 0.13737331990E+02 0.12926743101E+02
 0.12154720443E+02 0.11441326223E+02 0.10802531906E+02 0.10265780170E+02 0.98714203095E+01
 0.96610126552E+01 0.96609544930E+01 0.98712701685E+01 0.10265600609E+02 0.10802390738E+02
 0.11441251887E+02 0.10743723882E+02 0.11638788851E+02 0.12588379336E+02 0.13524530085E+02
 0.14348313074E+02 0.14925322127E+02 0.15050798093E+02 0.14667966965E+02 0.13967933420E+02
 0.13311492259E+02 0.13045115475E+02 0.13311150348E+02 0.13967460165E+02 0.14667600305E+02
 0.15050635901E+02 0.14925314201E+02 0.14348368679E+02 0.13524597864E+02 0.12588449433E+02
 0.11638868936E+02 0.10743825842E+02 0.99405851924E+01 0.92479364335E+01 0.86799731436E+01
 0.82535522449E+01 0.79874821987E+01 0.78968458961E+01 0.79874089845E+01 0.82534195366E+01
 0.86798087661E+01 0.92477748244E+01 0.99404509570E+01 0.96051799576E+01 0.10609111326E+02
 0.11673011443E+02 0.12719638172E+02 0.13649850182E+02 0.14312401255E+02 0.14541446582E+02
 0.14355671836E+02 0.13967784900E+02 0.13670463695E+02 0.13670334253E+02 0.13967460165E+02
 0.14355298256E+02 0.14541162548E+02 0.14312265703E+02 0.13649838474E+02 0.12719690287E+02
 0.11673081796E+02 0.10609188651E+02 0.96052662677E+01 0.87097680420E+01 0.79472185399E+01
 0.73282296017E+01 0.68581838703E+01 0.65414712873E+01 0.63819435761E+01 0.63819194431E+01
 0.65414142664E+01 0.68581195940E+01 0.73281642210E+01 0.79471423598E+01 0.87096805358E+01
 0.87472939834E+01 0.98529099629E+01 0.11027760439E+02 0.12195825927E+02 0.13264351893E+02
 0.14086199634E+02 0.14541467764E+02 0.14667860324E+02 0.14625064206E+02 0.14586215165E+02
 0.14624920460E+02 0.14667600305E+02 0.14541162548E+02 0.14085942151E+02 0.13264197096E+02
 0.12195764271E+02 0.11027751474E+02 0.98529262455E+01 0.87473177552E+01 0.77626505569E+01
 0.69264152128E+01 0.62482711854E+01 0.57279199836E+01 0.53611609354E+01 0.51433566751E+01
 0.50711539338E+01 0.51433543071E+01 0.53611875589E+01 0.57279900150E+01 0.62483528156E+01
 0.69264613719E+01 0.77626485899E+01 0.81727114157E+01 0.93883972042E+01 0.10692304407E+02
 0.12013364863E+02 0.13264454505E+02 0.14312528320E+02 0.15050832957E+02 0.15479240446E+02
 0.15663609936E+02 0.15663580486E+02 0.15479136156E+02 0.15050635901E+02 0.14312265703E+02
 0.13264197096E+02 0.12013173962E+02 0.10692189362E+02 0.93883295829E+01 0.81726615102E+01
 0.70948012136E+01 0.61813893313E+01 0.54401154379E+01 0.48664346895E+01 0.44501147902E+01
 0.41800894500E+01 0.40475202795E+01 0.40475663601E+01 0.41802171739E+01 0.44502898517E+01
 0.48666057546E+01 0.54402424970E+01 0.61814679858E+01 0.70948538923E+01 0.78842706568E+01
 0.92314661353E+01 0.10692347685E+02 0.12195976199E+02 0.13650056651E+02 0.14925461872E+02
 0.15892582188E+02 0.16485288625E+02 0.16683669009E+02 0.16485297188E+02 0.15892535835E+02
 0.14925314201E+02 0.13649838474E+02 0.12195764271E+02 0.10692189362E+02 0.92313547157E+01
 0.78841863468E+01 0.66980046933E+01 0.56968732198E+01 0.48852500238E+01 0.42540736766E+01
 0.37875084455E+01 0.34686590838E+01 0.32834532000E+01 0.32228027917E+01 0.32835756217E+01
 0.34688584197E+01 0.37877087648E+01 0.42542118009E+01 0.48853197440E+01 0.56969179317E+01
 0.66980646910E+01 0.78842237965E+01 0.93883951550E+01 0.11027843370E+02 0.12719784848E+02
 0.14348422452E+02 0.15767799503E+02 0.16815689409E+02 0.17370364919E+02 0.17370392816E+02
 0.16815740606E+02 0.15767812129E+02 0.14348368679E+02 0.12719690287E+02 0.11027751474E+02
 0.93883295829E+01 0.78841863468E+01 0.65664028643E+01 0.54585694846E+01 0.45623563612E+01
 0.38642228982E+01 0.33426656328E+01 0.29747769469E+01 0.27409728887E+01 0.26275465174E+01
 0.26275718027E+01 0.27410411669E+01 0.29748654647E+01 0.33427424803E+01 0.38642658585E+01
 0.45623682566E+01 0.54585723011E+01 0.65664177355E+01 0.81726154670E+01 0.98528936671E+01
 0.11673043178E+02 0.13524527371E+02 0.15255845999E+02 0.16685836053E+02 0.17634734631E+02
 0.17967678696E+02 0.17634802009E+02 0.16685942857E+02 0.15255949881E+02 0.13524597864E+02
 0.11673081796E+02 0.98529262455E+01 0.81726615102E+01 0.66980046933E+01 0.54585694846E+01
 0.44564591265E+01 0.36750795107E+01 0.30877414564E+01 0.26653963094E+01 0.23824707449E+01
 0.22201223424E+01 0.21672105312E+01 0.22200942106E+01 0.23824143677E+01 0.26653240804E+01
 0.30876773527E+01 0.36750368451E+01 0.44564265479E+01 0.54585274831E+01 0.66979521777E+01
 0.87472346283E+01 0.10609082527E+02 0.12588316472E+02 0.14541137749E+02 0.16279026988E+02
 0.17594715613E+02 0.18306283181E+02 0.18306319399E+02 0.17594815768E+02 0.16279167643E+02
 0.14541287613E+02 0.12588449433E+02 0.10609188651E+02 0.87473177552E+01 0.70948012136E+01
 0.56968732198E+01 0.45623563612E+01 0.36750795107E+01 0.30047766733E+01 0.25166720756E+01
 0.21788636117E+01 0.19667367544E+01 0.18644282793E+01 0.18643951250E+01 0.19666435703E+01
 0.21787299657E+01 0.25165283465E+01 0.30046513625E+01 0.36749846706E+01 0.45622847335E+01