   2   2   0   0
  0.2001288E+02  0.3839590E-09  0.3839590E-09  0.3839590E-09  0.5000000E-15
  1.000000000000000E-004
  CAR 
 unknown system                          
     30.89910912     -8.18518808  301      5.92525900      1.00000000
     -8.185  0.0000E+00  0.0000E+00
     -8.055  0.0000E+00  0.0000E+00
     -7.925  0.0000E+00  0.0000E+00
     -7.794 -0.1167E-27 -0.1521E-28
     -7.664 -0.2602E-23 -0.3390E-24
     -7.534 -0.2475E-19 -0.3225E-20
     -7.404 -0.1004E-15 -0.1309E-16
     -7.273 -0.1678E-12 -0.2187E-13
     -7.143 -0.1220E-09 -0.1592E-10
     -7.013 -0.3744E-07 -0.4894E-08
     -6.882 -0.4805E-05 -0.6309E-06
     -6.752 -0.2536E-03 -0.3367E-04
     -6.622 -0.5288E-02 -0.7226E-03
     -6.492 -0.3827E-01 -0.5708E-02
     -6.361 -0.3061E-01 -0.9696E-02
     -6.231  0.4658E+00  0.5099E-01
     -6.101  0.1306E+01  0.2212E+00
     -5.970  0.1355E+01  0.3978E+00
     -5.840  0.9107E+00  0.5164E+00
     -5.710  0.6798E+00  0.6050E+00
     -5.580  0.6017E+00  0.6834E+00
     -5.449  0.5303E+00  0.7525E+00
     -5.319  0.5147E+00  0.8195E+00
     -5.189  0.4393E+00  0.8767E+00
     -5.058  0.4548E+00  0.9360E+00
     -4.928  0.4160E+00  0.9902E+00
     -4.798  0.3527E+00  0.1036E+01
     -4.668  0.4454E+00  0.1094E+01
     -4.537  0.3155E+00  0.1135E+01
     -4.407  0.3253E+00  0.1178E+01
     -4.277  0.4344E+00  0.1234E+01
     -4.146  0.2590E+00  0.1268E+01
     -4.016  0.2781E+00  0.1304E+01
     -3.886  0.4419E+00  0.1362E+01
     -3.756  0.2629E+00  0.1396E+01
     -3.625  0.1868E+00  0.1420E+01
     -3.495  0.4297E+00  0.1476E+01
     -3.365  0.3573E+00  0.1523E+01
     -3.235  0.1084E+00  0.1537E+01
     -3.104  0.3031E+00  0.1577E+01
     -2.974  0.4911E+00  0.1640E+01
     -2.844  0.1915E+00  0.1665E+01
     -2.713  0.1047E+00  0.1679E+01
     -2.583  0.4441E+00  0.1737E+01
     -2.453  0.4121E+00  0.1791E+01
     -2.323  0.1205E+00  0.1806E+01
     -2.192  0.2498E+00  0.1839E+01
     -2.062  0.5928E+00  0.1916E+01
     -1.932  0.8039E+00  0.2021E+01
     -1.801  0.6456E+00  0.2105E+01
     -1.671  0.2802E+00  0.2141E+01
     -1.541  0.3402E+00  0.2186E+01
     -1.411  0.4555E+00  0.2245E+01
     -1.280  0.2600E+00  0.2279E+01
     -1.150  0.2244E+00  0.2308E+01
     -1.020  0.2000E+00  0.2334E+01
     -0.889  0.3129E+00  0.2375E+01
     -0.759  0.4637E+00  0.2435E+01
     -0.629  0.2244E+00  0.2465E+01
     -0.499  0.2833E-01  0.2468E+01
     -0.368  0.2749E+00  0.2504E+01
     -0.238  0.4997E+00  0.2569E+01
     -0.108  0.2348E+00  0.2600E+01
      0.023  0.6427E-01  0.2608E+01
      0.153  0.2304E+00  0.2638E+01
      0.283  0.3308E+00  0.2681E+01
      0.413  0.2823E+00  0.2718E+01
      0.544  0.1956E+00  0.2744E+01
      0.674  0.2363E+00  0.2774E+01
      0.804  0.1858E+00  0.2799E+01
      0.934  0.1764E+00  0.2822E+01
      1.065  0.2965E+00  0.2860E+01
      1.195  0.3201E+00  0.2902E+01
      1.325  0.1911E+00  0.2927E+01
      1.456  0.1083E-01  0.2928E+01
      1.586  0.2597E+00  0.2962E+01
      1.716  0.9979E+00  0.3092E+01
      1.846  0.1437E+01  0.3279E+01
      1.977  0.1102E+01  0.3423E+01
      2.107  0.6493E+00  0.3507E+01
      2.237  0.7095E+00  0.3600E+01
      2.368  0.8223E+00  0.3707E+01
      2.498  0.7778E+00  0.3808E+01
      2.628  0.3750E+00  0.3857E+01
      2.758  0.3582E+00  0.3904E+01
      2.889  0.1450E+01  0.4093E+01
      3.019  0.2441E+01  0.4411E+01
      3.149  0.2139E+01  0.4689E+01
      3.280  0.1398E+01  0.4872E+01
      3.410  0.1083E+01  0.5013E+01
      3.540  0.1185E+01  0.5167E+01
      3.670  0.1308E+01  0.5337E+01
      3.801  0.1217E+01  0.5496E+01
      3.931  0.8954E+00  0.5613E+01
      4.061  0.7924E+00  0.5716E+01
      4.192  0.1216E+01  0.5874E+01
      4.322  0.1052E+01  0.6011E+01
      4.452  0.8960E+00  0.6128E+01
      4.582  0.1058E+01  0.6266E+01
      4.713  0.9493E+00  0.6390E+01
      4.843  0.9986E+00  0.6520E+01
      4.973  0.9506E+00  0.6643E+01
      5.103  0.1161E+01  0.6795E+01
      5.234  0.1194E+01  0.6950E+01
      5.364  0.1032E+01  0.7085E+01
      5.494  0.1290E+01  0.7253E+01
      5.625  0.1811E+01  0.7489E+01
      5.755  0.2259E+01  0.7783E+01
      5.885  0.1496E+01  0.7978E+01
      6.015  0.2147E+00  0.8006E+01
      6.146  0.1078E-02  0.8006E+01
      6.276  0.8403E+00  0.8116E+01
      6.406  0.1577E+01  0.8321E+01
      6.537  0.1281E+01  0.8488E+01
      6.667  0.7563E+00  0.8586E+01
      6.797  0.5916E+00  0.8663E+01
      6.927  0.5129E+00  0.8730E+01
      7.058  0.5101E+00  0.8797E+01
      7.188  0.4684E+00  0.8858E+01
      7.318  0.3900E+00  0.8909E+01
      7.449  0.4848E+00  0.8972E+01
      7.579  0.4008E+00  0.9024E+01
      7.709  0.3020E+00  0.9063E+01
      7.839  0.3945E+00  0.9115E+01
      7.970  0.6692E+00  0.9202E+01
      8.100  0.1474E+01  0.9394E+01
      8.230  0.2545E+01  0.9726E+01
      8.360  0.3021E+01  0.1012E+02
      8.491  0.2280E+01  0.1042E+02
      8.621  0.1278E+01  0.1058E+02
      8.751  0.1294E+01  0.1075E+02
      8.882  0.1432E+01  0.1094E+02
      9.012  0.1306E+01  0.1111E+02
      9.142  0.1583E+01  0.1131E+02
      9.272  0.1661E+01  0.1153E+02
      9.403  0.1982E+01  0.1179E+02
      9.533  0.2646E+01  0.1213E+02
      9.663  0.2274E+01  0.1243E+02
      9.794  0.2002E+01  0.1269E+02
      9.924  0.2499E+01  0.1302E+02
     10.054  0.2389E+01  0.1333E+02
     10.184  0.1657E+01  0.1354E+02
     10.315  0.1563E+01  0.1375E+02
     10.445  0.1325E+01  0.1392E+02
     10.575  0.8340E+00  0.1403E+02
     10.706  0.9858E+00  0.1416E+02
     10.836  0.1119E+01  0.1430E+02
     10.966  0.8920E+00  0.1442E+02
     11.096  0.3749E+00  0.1447E+02
     11.227 -0.3062E-01  0.1446E+02
     11.357  0.1440E+00  0.1448E+02
     11.487  0.8180E+00  0.1459E+02
     11.618  0.9127E+00  0.1471E+02
     11.748  0.2460E+00  0.1474E+02
     11.878 -0.8903E-01  0.1473E+02
     12.008  0.8930E-01  0.1474E+02
     12.139  0.7299E+00  0.1483E+02
     12.269  0.1043E+01  0.1497E+02
     12.399  0.1016E+01  0.1510E+02
     12.529  0.1185E+01  0.1526E+02
     12.660  0.9761E+00  0.1538E+02
     12.790  0.8892E+00  0.1550E+02
     12.920  0.1128E+01  0.1565E+02
     13.051  0.1105E+01  0.1579E+02
     13.181  0.4571E+00  0.1585E+02
     13.311  0.3899E+00  0.1590E+02
     13.441  0.1940E+01  0.1615E+02
     13.572  0.3486E+01  0.1661E+02
     13.702  0.3206E+01  0.1703E+02
     13.832  0.1961E+01  0.1728E+02
     13.963  0.1243E+01  0.1744E+02
     14.093  0.1186E+01  0.1760E+02
     14.223  0.1444E+01  0.1779E+02
     14.353  0.1291E+01  0.1795E+02
     14.484  0.9684E+00  0.1808E+02
     14.614  0.9495E+00  0.1820E+02
     14.744  0.1271E+01  0.1837E+02
     14.875  0.1599E+01  0.1858E+02
     15.005  0.1046E+01  0.1871E+02
     15.135  0.4327E+00  0.1877E+02
     15.265  0.5645E+00  0.1884E+02
     15.396  0.1093E+01  0.1899E+02
     15.526  0.1661E+01  0.1920E+02
     15.656  0.1570E+01  0.1941E+02
     15.787  0.1016E+01  0.1954E+02
     15.917  0.7952E+00  0.1964E+02
     16.047  0.9507E+00  0.1977E+02
     16.177  0.8610E+00  0.1988E+02
     16.308  0.8230E+00  0.1999E+02
     16.438  0.1113E+01  0.2013E+02
     16.568  0.1317E+01  0.2030E+02
     16.698  0.1311E+01  0.2047E+02
     16.829  0.2167E+01  0.2076E+02
     16.959  0.3615E+01  0.2123E+02
     17.089  0.3634E+01  0.2170E+02
     17.220  0.2718E+01  0.2206E+02
     17.350  0.1969E+01  0.2231E+02
     17.480  0.1348E+01  0.2249E+02
     17.610  0.1588E+01  0.2269E+02
     17.741  0.2091E+01  0.2297E+02
     17.871  0.1842E+01  0.2321E+02
     18.001  0.1446E+01  0.2340E+02
     18.132  0.1069E+01  0.2353E+02
     18.262  0.1054E+01  0.2367E+02
     18.392  0.1969E+01  0.2393E+02
     18.522  0.2493E+01  0.2425E+02
     18.653  0.2233E+01  0.2454E+02
     18.783  0.2006E+01  0.2481E+02
     18.913  0.1571E+01  0.2501E+02
     19.044  0.1920E+01  0.2526E+02
     19.174  0.2334E+01  0.2556E+02
     19.304  0.2282E+01  0.2586E+02
     19.434  0.2305E+01  0.2616E+02
     19.565  0.1407E+01  0.2635E+02
     19.695  0.6830E+00  0.2643E+02
     19.825  0.7505E+00  0.2653E+02
     19.956  0.1274E+01  0.2670E+02
     20.086  0.1112E+01  0.2684E+02
     20.216  0.5432E+00  0.2691E+02
     20.346  0.2108E+00  0.2694E+02
     20.477  0.3185E+00  0.2698E+02
     20.607  0.7428E+00  0.2708E+02
     20.737  0.1211E+01  0.2724E+02
     20.867  0.1271E+01  0.2740E+02
     20.998  0.9716E+00  0.2753E+02
     21.128  0.8575E+00  0.2764E+02
     21.258  0.7479E+00  0.2774E+02
     21.389  0.1043E+01  0.2787E+02
     21.519  0.1773E+01  0.2811E+02
     21.649  0.1437E+01  0.2829E+02
     21.779  0.3170E+00  0.2833E+02
     21.910  0.4381E-01  0.2834E+02
     22.040  0.8546E+00  0.2845E+02
     22.170  0.1808E+01  0.2869E+02
     22.301  0.2232E+01  0.2898E+02
     22.431  0.2083E+01  0.2925E+02
     22.561  0.1283E+01  0.2942E+02
     22.691  0.4810E+00  0.2948E+02
     22.822  0.3712E+00  0.2953E+02
     22.952  0.4603E+00  0.2959E+02
     23.082  0.5692E+00  0.2966E+02
     23.213  0.8390E+00  0.2977E+02
     23.343  0.6514E+00  0.2985E+02
     23.473  0.3582E+00  0.2990E+02
     23.603  0.5592E+00  0.2997E+02
     23.734  0.1019E+01  0.3011E+02
     23.864  0.1374E+01  0.3029E+02
     23.994  0.1551E+01  0.3049E+02
     24.124  0.1423E+01  0.3067E+02
     24.255  0.1422E+01  0.3086E+02
     24.385  0.1362E+01  0.3104E+02
     24.515  0.1124E+01  0.3118E+02
     24.646  0.8701E+00  0.3130E+02
     24.776  0.5518E+00  0.3137E+02
     24.906  0.4896E+00  0.3143E+02
     25.036  0.2769E+00  0.3147E+02
     25.167  0.1457E-01  0.3147E+02
     25.297 -0.2108E-01  0.3147E+02
     25.427 -0.6274E-02  0.3147E+02
     25.558 -0.1194E-01  0.3146E+02
     25.688  0.1238E-01  0.3147E+02
     25.818  0.1658E+00  0.3149E+02
     25.948  0.2492E+00  0.3152E+02
     26.079  0.1790E+00  0.3154E+02
     26.209  0.2443E+00  0.3158E+02
     26.339  0.1811E+00  0.3160E+02
     26.470  0.1404E-01  0.3160E+02
     26.600 -0.2298E-01  0.3160E+02
     26.730  0.7975E-01  0.3161E+02
     26.860  0.2531E+00  0.3164E+02
     26.991  0.1873E+00  0.3167E+02
     27.121  0.1363E-01  0.3167E+02
     27.251 -0.2182E-01  0.3166E+02
     27.382  0.8622E-01  0.3168E+02
     27.512  0.2452E+00  0.3171E+02
     27.642  0.2264E+00  0.3174E+02
     27.772  0.2436E+00  0.3177E+02
     27.903  0.2115E+00  0.3180E+02
     28.033  0.4135E-01  0.3180E+02
     28.163 -0.2536E-01  0.3180E+02
     28.293 -0.2294E-01  0.3180E+02
     28.424  0.1504E+00  0.3182E+02
     28.554  0.4721E+00  0.3188E+02
     28.684  0.3844E+00  0.3193E+02
     28.815  0.1691E+00  0.3195E+02
     28.945  0.2389E+00  0.3198E+02
     29.075  0.1567E+00  0.3200E+02
     29.205  0.8872E-02  0.3200E+02
     29.336 -0.1126E-01  0.3200E+02
     29.466 -0.2050E-02  0.3200E+02
     29.596 -0.1145E-03  0.3200E+02
     29.727 -0.2425E-05  0.3200E+02
     29.857 -0.2066E-07  0.3200E+02
     29.987 -0.7256E-10  0.3200E+02
     30.117 -0.1064E-12  0.3200E+02
     30.248 -0.1136E-15  0.3200E+02
     30.378  0.0000E+00  0.3200E+02
     30.508  0.0000E+00  0.3200E+02
     30.639  0.0000E+00  0.3200E+02
     30.769  0.0000E+00  0.3200E+02
     30.899  0.0000E+00  0.3200E+02
