    2    2    1    1
  0.2001288E+02  0.3839590E-09  0.3839590E-09  0.3839590E-09  0.5000000E-15
  1.000000000000000E-004
  CAR 
 unknown system                          
    8   30   16
 
  0.5000000E+00  0.2500000E+00  0.7500000E+00  0.3333333E-01
   1       -1.871338
   2       -1.871336
   3        1.896334
   4        1.896341
   5        9.985015
   6        9.985057
   7       10.718317
   8       10.718336
   9       16.316939
  10       16.316940
  11       18.764825
  12       18.764849
  13       22.120193
  14       22.120231
  15       24.214355
  16       24.224299
 
  0.4666670E+00  0.2333330E+00  0.7000000E+00  0.3333333E-01
   1       -2.209765
   2       -1.546731
   3        1.730238
   4        2.150403
   5        9.773204
   6        9.808393
   7       10.484386
   8       11.438055
   9       15.654764
  10       16.694210
  11       18.361795
  12       19.391814
  13       21.486157
  14       22.502784
  15       23.734209
  16       23.869903
 
  0.4333330E+00  0.2166670E+00  0.6500000E+00  0.3333333E-01
   1       -2.603129
   2       -1.183705
   3        1.693570
   4        2.443366
   5        9.448933
   6        9.604133
   7       10.297155
   8       12.443722
   9       14.925928
  10       16.500472
  11       18.548023
  12       19.921108
  13       20.809964
  14       22.363363
  15       22.564906
  16       24.257746
 
  0.4000000E+00  0.2000000E+00  0.6000000E+00  0.3333333E-01
   1       -3.028849
   2       -0.783140
   3        1.769252
   4        2.767111
   5        9.112130
   6        9.483192
   7       10.151789
   8       13.506526
   9       14.196856
  10       15.952924
  11       19.052802
  12       20.091093
  13       20.166649
  14       21.386610
  15       22.267708
  16       24.388537
 
  0.3666670E+00  0.1833330E+00  0.5500000E+00  0.3333333E-01
   1       -3.464749
   2       -0.344562
   3        1.938090
   4        3.113978
   5        8.819224
   6        9.421203
   7       10.042456
   8       13.489379
   9       14.585743
  10       15.347173
  11       19.340452
  12       19.651319
  13       19.879102
  14       20.443455
  15       22.442553
  16       23.859788
 
  0.3333330E+00  0.1666670E+00  0.5000000E+00  0.3333333E-01
   1       -3.892803
   2        0.131529
   3        2.183307
   4        3.473612
   5        8.573318
   6        9.425652
   7        9.960624
   8       12.808840
   9       14.762828
  10       15.613287
  11       18.721226
  12       18.965854
  13       19.551817
  14       20.662572
  15       22.271997
  16       23.660930
 
  0.3000000E+00  0.1500000E+00  0.4500000E+00  0.3333333E-01
   1       -4.300504
   2        0.644451
   3        2.490876
   4        3.833465
   5        8.373516
   6        9.497070
   7        9.891813
   8       12.153784
   9       14.222556
  10       16.420045
  11       17.627047
  12       18.439651
  13       19.393576
  14       21.227420
  15       21.493971
  16       24.117177
 
  0.2666670E+00  0.1333330E+00  0.4000000E+00  0.3333333E-01
   1       -4.678632
   2        1.194041
   3        2.850880
   4        4.182682
   5        8.223762
   6        9.600057
   7        9.870528
   8       11.536711
   9       13.754402
  10       16.527350
  11       16.729751
  12       17.996533
  13       19.609185
  14       20.765508
  15       21.632086
  16       24.017596
 
  0.2333330E+00  0.1166670E+00  0.3500000E+00  0.3333333E-01
   1       -5.021030
   2        1.778770
   3        3.252521
   4        4.510706
   5        8.124257
   6        9.581474
   7       10.030965
   8       10.957101
   9       13.354151
  10       15.500965
  11       16.529356
  12       17.623147
  13       19.379045
  14       21.073958
  15       21.462816
  16       23.959954
 
  0.2000000E+00  0.1000000E+00  0.3000000E+00  0.3333333E-01
   1       -5.323675
   2        2.396433
   3        3.685151
   4        4.809745
   5        8.072394
   6        9.451032
   7       10.328676
   8       10.410547
   9       12.989189
  10       14.611634
  11       16.075454
  12       17.317723
  13       18.710788
  14       20.783504
  15       22.180590
  16       24.388787
 
  0.1666670E+00  0.8333300E-01  0.2500000E+00  0.3333333E-01
   1       -5.583559
   2        3.042316
   3        4.136138
   4        5.076275
   5        8.064027
   6        9.267953
   7        9.900142
   8       10.625196
   9       12.604595
  10       13.982563
  11       15.511604
  12       17.085419
  13       18.116314
  14       19.947925
  15       23.468446
  16       24.158384
 
  0.1333330E+00  0.6666700E-01  0.2000000E+00  0.3333333E-01
   1       -5.798455
   2        3.709935
   3        4.590400
   4        5.309755
   5        8.096405
   6        9.057635
   7        9.433941
   8       10.679404
   9       12.363289
  10       13.684042
  11       14.914167
  12       16.935685
  13       17.655258
  14       19.118309
  15       23.220410
  16       24.824567
 
  0.1000000E+00  0.5000000E-01  0.1500000E+00  0.3333333E-01
   1       -5.966912
   2        4.384452
   3        5.025518
   4        5.504959
   5        8.157480
   6        8.840359
   7        9.015477
   8       10.259702
   9       12.569642
  10       13.584791
  11       14.348623
  12       16.866840
  13       17.318589
  14       18.335320
  15       22.305802
  16       26.180686
 
  0.6666700E-01  0.3333300E-01  0.1000000E+00  0.3333333E-01
   1       -6.087904
   2        5.030307
   3        5.408255
   4        5.656950
   5        8.230291
   6        8.630039
   7        8.661631
   8        9.650695
   9       13.009434
  10       13.571500
  11       13.879230
  12       16.864545
  13       17.092099
  14       17.643500
  15       21.547850
  16       27.474673
 
  0.3333300E-01  0.1666700E-01  0.5000000E-01  0.3333333E-01
   1       -6.160788
   2        5.561900
   3        5.685202
   4        5.755446
   5        8.290686
   6        8.409437
   7        8.428222
   8        9.163429
   9       13.416444
  10       13.565863
  11       13.582840
  12       16.896929
  13       16.959814
  14       17.122447
  15       21.036603
  16       28.503375
 
  0.0000000E+00  0.0000000E+00  0.0000000E+00  0.3333333E-01
   1       -6.185188
   2        5.788611
   3        5.788622
   4        5.788622
   5        8.314199
   6        8.314212
   7        8.314212
   8        8.989408
   9       13.455191
  10       13.589659
  11       13.589659
  12       16.913647
  13       16.913654
  14       16.913654
  15       20.853473
  16       28.899109
 
  0.3571400E-01  0.0000000E+00  0.3571400E-01  0.3333333E-01
   1       -6.162770
   2        5.637028
   3        5.694947
   4        5.694954
   5        8.256462
   6        8.436628
   7        8.436636
   8        9.138357
   9       13.399889
  10       13.557021
  11       13.614432
  12       16.956090
  13       16.956094
  14       17.045596
  15       21.023810
  16       28.562446
 
  0.7142900E-01  0.0000000E+00  0.7142900E-01  0.3333333E-01
   1       -6.095769
   2        5.245877
   3        5.454227
   4        5.454234
   5        8.096654
   6        8.758718
   7        8.758726
   8        9.502472
   9       12.947165
  10       13.688741
  11       13.847903
  12       17.074792
  13       17.074795
  14       17.346095
  15       21.518008
  16       27.770074
 
  0.1071430E+00  0.0000000E+00  0.1071430E+00  0.3333333E-01
   1       -5.984338
   2        4.724173
   3        5.142098
   4        5.142104
   5        7.867364
   6        9.205338
   7        9.205346
   8        9.907765
   9       12.450295
  10       13.812553
  11       14.294108
  12       17.271727
  13       17.271731
  14       17.698989
  15       22.286260
  16       26.831330
 
  0.1428570E+00  0.0000000E+00  0.1428570E+00  0.3333333E-01
   1       -5.828760
   2        4.139855
   3        4.808662
   4        4.808669
   5        7.602803
   6        9.725593
   7        9.725602
   8       10.099742
   9       12.215981
  10       13.985819
  11       14.858795
  12       17.545374
  13       17.545378
  14       18.068635
  15       23.256087
  16       25.858110
 
  0.1785710E+00  0.0000000E+00  0.1785710E+00  0.3333333E-01
   1       -5.629568
   2        3.523283
   3        4.478535
   4        4.478541
   5        7.329594
   6        9.866736
   7       10.289993
   8       10.290003
   9       12.467140
  10       14.203393
  11       15.510371
  12       17.886534
  13       17.886538
  14       18.468231
  15       24.359507
  16       24.881730
 
  0.2142860E+00  0.0000000E+00  0.2142860E+00  0.3333333E-01
   1       -5.387260
   2        2.892520
   3        4.169640
   4        4.169646
   5        7.068121
   6        9.379446
   7       10.885587
   8       10.885597
   9       13.035519
  10       14.474994
  11       16.221605
  12       18.292234
  13       18.292239
  14       18.899800
  15       23.951310
  16       23.951959
 
  0.2500000E+00  0.0000000E+00  0.2500000E+00  0.3333333E-01
   1       -5.102533
   2        2.254489
   3        3.888004
   4        3.888010
   5        6.831799
   6        8.835008
   7       11.506969
   8       11.506979
   9       13.733199
  10       14.795709
  11       16.967335
  12       18.736885
  13       18.736891
  14       19.386792
  15       23.103546
  16       23.103860
 
  0.2857140E+00  0.0000000E+00  0.2857140E+00  0.3333333E-01
   1       -4.776636
   2        1.614077
   3        3.637908
   4        3.637914
   5        6.628207
   6        8.309708
   7       12.138204
   8       12.138214
   9       14.475655
  10       15.156206
  11       17.712241
  12       19.137423
  13       19.137431
  14       19.937221
  15       22.403166
  16       22.403571
 
  0.3214290E+00  0.0000000E+00  0.3214290E+00  0.3333333E-01
   1       -4.410594
   2        0.975850
   3        3.422921
   4        3.422927
   5        6.464742
   6        7.832955
   7       12.783441
   8       12.783453
   9       15.231527
  10       15.574110
  11       18.408133
  12       19.318417
  13       19.318431
  14       20.560174
  15       22.038437
  16       22.039597
 
  0.3571430E+00  0.0000000E+00  0.3571430E+00  0.3333333E-01
   1       -4.005453
   2        0.343703
   3        3.244070
   4        3.244076
   5        6.347699
   6        7.415780
   7       13.439241
   8       13.439253
   9       15.980870
  10       16.040469
  11       18.976567
  12       19.057060
  13       19.057070
  14       21.259462
  15       21.490467
  16       22.208304
 
  0.3928570E+00  0.0000000E+00  0.3928570E+00  0.3333333E-01
   1       -3.563689
   2       -0.277759
   3        3.104648
   4        3.104654
   5        6.279479
   6        7.064168
   7       14.111645
   8       14.111652
   9       16.558393
  10       16.713306
  11       18.518612
  12       18.518617
  13       19.310732
  14       20.656920
  15       22.034050
  16       22.805799
 
  0.4285710E+00  0.0000000E+00  0.4285710E+00  0.3333333E-01
   1       -3.087087
   2       -0.885695
   3        3.004134
   4        3.004140
   5        6.262507
   6        6.776722
   7       14.773343
   8       14.773350
   9       17.120375
  10       17.408376
  11       17.850840
  12       17.850844
  13       19.335418
  14       19.863021
  15       22.864696
  16       23.624985
 
  0.4642860E+00  0.0000000E+00  0.4642860E+00  0.3333333E-01
   1       -2.577917
   2       -1.473827
   3        2.944140
   4        2.944145
   5        6.302295
   6        6.556646
   7       15.410560
   8       15.410564
   9       17.204052
  10       17.204057
  11       17.755765
  12       18.054508
  13       19.078150
  14       19.114912
  15       23.750224
  16       24.566048
 
  0.5000000E+00  0.0000000E+00  0.5000000E+00  0.3333333E-01
   1       -2.039101
   2       -2.039101
   3        2.923979
   4        2.923985
   5        6.399245
   6        6.399265
   7       15.775591
   8       15.775597
   9       16.830185
  10       16.830188
  11       18.412226
  12       18.412226
  13       18.626302
  14       18.626317
  15       24.574450
  16       24.575485
