 vasp.5.3.3.4 18Dez12 (build Jun 09 2015 23:14:47) complex                      
  
 executed on   half-orig-parallel date 2019.07.24  21:00:50
 running on   16 total cores
 distrk:  each k-point on   16 cores,    1 groups
 distr:  one band on NCORES_PER_BAND=   1 cores,   16 groups


--------------------------------------------------------------------------------------------------------


 INCAR:
 POTCAR:    PAW Si 02Apr1999                      

 ----------------------------------------------------------------------------- 
|                                                                             |
|           W    W    AA    RRRRR   N    N  II  N    N   GGGG   !!!           |
|           W    W   A  A   R    R  NN   N  II  NN   N  G    G  !!!           |
|           W    W  A    A  R    R  N N  N  II  N N  N  G       !!!           |
|           W WW W  AAAAAA  RRRRR   N  N N  II  N  N N  G  GGG   !            |
|           WW  WW  A    A  R   R   N   NN  II  N   NN  G    G                |
|           W    W  A    A  R    R  N    N  II  N    N   GGGG   !!!           |
|                                                                             |
|      For optimal performance we recommend that you set                      |
|        NPAR = 4 - approx SQRT( number of cores)                             |
|      (number of cores/NPAR must be integer)                                 |
|      This setting will greatly improve the performance of VASP for DFT.     |
|      The default NPAR=number of cores might be grossly inefficient          |
|      on modern multi-core architectures or massively parallel machines.     |
|      Do your own testing.                                                   |
|      Unfortunately you need to use the default for hybrid, GW and RPA       |
|      calculations.                                                          |
|                                                                             |
 ----------------------------------------------------------------------------- 

 POTCAR:    PAW Si 02Apr1999                      
   VRHFIN =Si: s2p2                                                             
   LEXCH  = CA                                                                  
   EATOM  =   103.4324 eV,    7.6021 Ry                                         
                                                                                
   TITEL  = PAW Si 02Apr1999                                                    
   LULTRA =        F    use ultrasoft PP ?                                      
   IUNSCR =        1    unscreen: 0-lin 1-nonlin 2-no                           
   RPACOR =    1.500    partial core radius                                     
   POMASS =   28.085; ZVAL   =    4.000    mass and valenz                      
   RCORE  =    1.900    outmost cutoff radius                                   
   RWIGS  =    2.480; RWIGS  =    1.312    wigner-seitz radius (au A)           
   ENMAX  =  245.704; ENMIN  =  184.278 eV                                      
   ICORE  =        2    local potential                                         
   LCOR   =        T    correct aug charges                                     
   LPAW   =        T    paw PP                                                  
   EAUG   =  322.069                                                            
   DEXC   =    0.000                                                            
   RMAX   =    1.950    core radius for proj-oper                               
   RAUG   =    1.300    factor for augmentation sphere                          
   RDEP   =    1.993    radius for radial grids                                 
   RDEPT  =    1.837    core radius for aug-charge                              
                                                                                
   Atomic configuration                                                         
    6 entries                                                                   
     n  l   j            E        occ.                                          
     1  0  0.50     -1775.8314   2.0000                                         
     2  0  0.50      -138.5880   2.0000                                         
     2  1  1.50       -95.5692   6.0000                                         
     3  0  0.50       -10.8763   2.0000                                         
     3  1  0.50        -4.1699   2.0000                                         
     3  2  1.50        -4.0817   0.0000                                         
   Description                                                                  
     l       E           TYP  RCUT    TYP  RCUT                                 
     0    -10.8763219     23  1.900                                             
     0     -7.7512337     23  1.900                                             
     1     -4.1698617     23  1.900                                             
     1      2.3141648     23  1.900                                             
     2     -4.0817478      7  1.900                                             
  local pseudopotential read in
  partial core-charges read in
  partial kinetic energy density read in
  atomic valenz-charges read in
  non local Contribution for L=           0  read in
    real space projection operators read in
  non local Contribution for L=           0  read in
    real space projection operators read in
  non local Contribution for L=           1  read in
    real space projection operators read in
  non local Contribution for L=           1  read in
    real space projection operators read in
    PAW grid and wavefunctions read in
 
   number of l-projection  operators is LMAX  =           4
   number of lm-projection operators is LMMAX =           8
 
  PAW Si 02Apr1999                      :
 energy of atom  1       EATOM= -103.4324
 kinetic energy error for atom=    0.0056 (will be added to EATOM!!)
 
 
 POSCAR: Si                                      
  positions in cartesian coordinates
  No initial velocities read in
 exchange correlation table for  LEXCH =        2
   RHO(1)=    0.500       N(1)  =     2000
   RHO(2)=  100.500       N(2)  =     4000
 


--------------------------------------------------------------------------------------------------------


 ion  position               nearest neighbor table
   1  0.000  0.000  0.000-   2 2.35   2 2.35   2 2.35   2 2.35
   2  0.250  0.250  0.250-   1 2.35   1 2.35   1 2.35   1 2.35
 

IMPORTANT INFORMATION: All symmetrisations will be switched off!
NOSYMM: (Re-)initialisation of all symmetry stuff for point group C_1.

 
 
 KPOINTS: KPOINTS created by Atomic Simulation Env
  k-points in reciprocal lattice
Space group operators:
 irot       det(A)        alpha          n_x          n_y          n_z        tau_x        tau_y        tau_z
    1     1.000000     0.000001     1.000000     0.000000     0.000000     0.000000     0.000000     0.000000


--------------------------------------------------------------------------------------------------------




 Dimension of arrays:
   k-points           NKPTS =     30   k-points in BZ     NKDIM =     30   number of bands    NBANDS=     16
   number of dos      NEDOS =    301   number of ions     NIONS =      2
   non local maximal  LDIM  =      4   non local SUM 2l+1 LMDIM =      8
   total plane-waves  NPLWV =   4096
   max r-space proj   IRMAX =      1   max aug-charges    IRDMAX=   3621
   dimension x,y,z NGX =    16 NGY =   16 NGZ =   16
   dimension x,y,z NGXF=    32 NGYF=   32 NGZF=   32
   support grid    NGXF=    32 NGYF=   32 NGZF=   32
   ions per type =               2
 NGX,Y,Z   is equivalent  to a cutoff of   6.93,  6.93,  6.93 a.u.
 NGXF,Y,Z  is equivalent  to a cutoff of  13.86, 13.86, 13.86 a.u.


 I would recommend the setting:
   dimension x,y,z NGX =    15 NGY =   15 NGZ =   15
 SYSTEM =  unknown system                          
 POSCAR =  Si                                      

 Startparameter for this run:
   NWRITE =      2    write-flag & timer
   PREC   = normal    normal or accurate (medium, high low for compatibility)
   ISTART =      1    job   : 0-new  1-cont  2-samecut
   ICHARG =     11    charge: 1-file 2-atom 10-const
   ISPIN  =      1    spin polarized calculation?
   LNONCOLLINEAR =      F non collinear calculations
   LSORBIT =      F    spin-orbit coupling
   INIWAV =      1    electr: 0-lowe 1-rand  2-diag
   LASPH  =      F    aspherical Exc in radial PAW
   METAGGA=      F    non-selfconsistent MetaGGA calc.

 Electronic Relaxation 1
   ENCUT  =  245.7 eV  18.06 Ry    4.25 a.u.   4.91  4.91  4.91*2*pi/ulx,y,z
   ENINI  =  245.7     initial cutoff
   ENAUG  =  322.1 eV  augmentation charge cutoff
   NELM   =     60;   NELMIN=  2; NELMDL=  0     # of ELM steps 
   EDIFF  = 0.1E-03   stopping-criterion for ELM
   LREAL  =      F    real-space projection
   NLSPLINE    = F    spline interpolate recip. space projectors
   LCOMPAT=      F    compatible to vasp.4.4
   GGA_COMPAT  = T    GGA compatible to vasp.4.4-vasp.4.6
   LMAXPAW     = -100 max onsite density
   LMAXMIX     =    2 max onsite mixed and CHGCAR
   VOSKOWN=      0    Vosko Wilk Nusair interpolation
   ROPT   =    0.00000
 Ionic relaxation
   EDIFFG = 0.1E-02   stopping-criterion for IOM
   NSW    =      0    number of steps for IOM
   NBLOCK =      1;   KBLOCK =      1    inner block; outer block 
   IBRION =     -1    ionic relax: 0-MD 1-quasi-New 2-CG
   NFREE  =      0    steps in history (QN), initial steepest desc. (CG)
   ISIF   =      2    stress and relaxation
   IWAVPR =     10    prediction:  0-non 1-charg 2-wave 3-comb
   ISYM   =      0    0-nonsym 1-usesym 2-fastsym
   LCORR  =      T    Harris-Foulkes like correction to forces

   POTIM  = 0.5000    time-step for ionic-motion
   TEIN   =    0.0    initial temperature
   TEBEG  =    0.0;   TEEND  =   0.0 temperature during run
   SMASS  =  -3.00    Nose mass-parameter (am)
   estimated Nose-frequenzy (Omega)   =  0.10E-29 period in steps =****** mass=  -0.337E-27a.u.
   SCALEE = 1.0000    scale energy and forces
   NPACO  =    256;   APACO  = 16.0  distance and # of slots for P.C.
   PSTRESS=    0.0 pullay stress

  Mass of Ions in am
   POMASS =  28.09
  Ionic Valenz
   ZVAL   =   4.00
  Atomic Wigner-Seitz radii
   RWIGS  =  -1.00
  virtual crystal weights 
   VCA    =   1.00
   NELECT =       8.0000    total number of electrons
   NUPDOWN=      -1.0000    fix difference up-down

 DOS related values:
   EMIN   =  10.00;   EMAX   =-10.00  energy-range for DOS
   EFERMI =   0.00
   ISMEAR =     1;   SIGMA  =   0.20  broadening in eV -4-tet -1-fermi 0-gaus

 Electronic relaxation 2 (details)
   IALGO  =     38    algorithm
   LDIAG  =      T    sub-space diagonalisation (order eigenvalues)
   LSUBROT=      T    optimize rotation matrix (better conditioning)
   TURBO    =      0    0=normal 1=particle mesh
   IRESTART =      0    0=no restart 2=restart with 2 vectors
   NREBOOT  =      0    no. of reboots
   NMIN     =      0    reboot dimension
   EREF     =   0.00    reference energy to select bands
   IMIX   =      4    mixing-type and parameters
     AMIX     =   0.40;   BMIX     =  1.00
     AMIX_MAG =   1.60;   BMIX_MAG =  1.00
     AMIN     =   0.10
     WC   =   100.;   INIMIX=   1;  MIXPRE=   1;  MAXMIX= -45

 Intra band minimization:
   WEIMIN = 0.0000     energy-eigenvalue tresh-hold
   EBREAK =  0.16E-05  absolut break condition
   DEPER  =   0.30     relativ break condition  

   TIME   =   0.40     timestep for ELM

  volume/ion in A,a.u.               =      20.01       135.05
  Fermi-wavevector in a.u.,A,eV,Ry     =   0.957176  1.808800 12.465458  0.916185
  Thomas-Fermi vector in A             =   2.086170
 
 Write flags
   LWAVE  =      T    write WAVECAR
   LCHARG =      T    write CHGCAR
   LVTOT  =      F    write LOCPOT, total local potential
   LVHAR  =      F    write LOCPOT, Hartree potential only
   LELF   =      F    write electronic localiz. function (ELF)
   LORBIT =      0    0 simple, 1 ext, 2 COOP (PROOUT)


 Dipole corrections
   LMONO  =      F    monopole corrections only (constant potential shift)
   LDIPOL =      F    correct potential (dipole corrections)
   IDIPOL =      0    1-x, 2-y, 3-z, 4-all directions 
   EPSILON=  1.0000000 bulk dielectric constant

 Exchange correlation treatment:
   GGA     =    --    GGA type
   LEXCH   =     2    internal setting for exchange type
   VOSKOWN=      0    Vosko Wilk Nusair interpolation
   LHFCALC =     F    Hartree Fock is set to
   LHFONE  =     F    Hartree Fock one center treatment
   AEXX    =    0.0000 exact exchange contribution

 Linear response parameters
   LEPSILON=     F    determine dielectric tensor
   LRPA    =     F    only Hartree local field effects (RPA)
   LNABLA  =     F    use nabla operator in PAW spheres
   LVEL    =     F    velocity operator in full k-point grid
   LINTERFAST=   F  fast interpolation
   KINTER  =     0    interpolate to denser k-point grid
   CSHIFT  =0.1000    complex shift for real part using Kramers Kronig
   OMEGAMAX=  -1.0    maximum frequency
   DEG_THRESHOLD= 0.2000000E-02 threshold for treating states as degnerate
   RTIME   =    0.100 relaxation time in fs

 Orbital magnetization related:
   ORBITALMAG=     F  switch on orbital magnetization
   LCHIMAG   =     F  perturbation theory with respect to B field
   DQ        =  0.001000  dq finite difference perturbation B field



--------------------------------------------------------------------------------------------------------


 Static calculation
 charge density and potential remain constant during run
 non-spin polarized calculation
 Variant of blocked Davidson
 Davidson routine will perform the subspace rotation
 perform sub-space diagonalisation
    after iterative eigenvector-optimisation
 no mixing
 using additional bands           12
 reciprocal scheme for non local part
 use partial core corrections
 calculate Harris-corrections to forces 
   (improved forces if not selfconsistent)
 use of overlap-Matrix (Vanderbilt PP)
 Methfessel and Paxton  Order N= 1 SIGMA  =   0.20


--------------------------------------------------------------------------------------------------------


  energy-cutoff  :      245.70
  volume of cell :       40.03
      direct lattice vectors                 reciprocal lattice vectors
     0.000000000  2.715000000  2.715000000    -0.184162063  0.184162063  0.184162063
     2.715000000  0.000000000  2.715000000     0.184162063 -0.184162063  0.184162063
     2.715000000  2.715000000  0.000000000     0.184162063  0.184162063 -0.184162063

  length of vectors
     3.839589822  3.839589822  3.839589822     0.318978049  0.318978049  0.318978049


 
 old parameters found on file WAVECAR:
  energy-cutoff  :      245.70
  volume of cell :       40.03
      direct lattice vectors                 reciprocal lattice vectors
     0.000000000  2.715000000  2.715000000    -0.184162063  0.184162063  0.184162063
     2.715000000  0.000000000  2.715000000     0.184162063 -0.184162063  0.184162063
     2.715000000  2.715000000  0.000000000     0.184162063  0.184162063 -0.184162063

  length of vectors

 
 k-points in units of 2pi/SCALE and weight: KPOINTS created by Atomic Simulation Env
   0.09208103  0.18416206  0.00000000       0.033
   0.08594217  0.17188471  0.00000000       0.033
   0.07980368  0.15960700  0.00000000       0.033
   0.07366483  0.14732965  0.00000000       0.033
   0.06752597  0.13505230 -0.00000000       0.033
   0.06138748  0.12277459  0.00000000       0.033
   0.05524862  0.11049724 -0.00000000       0.033
   0.04910976  0.09821989 -0.00000000       0.033
   0.04297127  0.08594217  0.00000000       0.033
   0.03683241  0.07366483  0.00000000       0.033
   0.03069355  0.06138748  0.00000000       0.033
   0.02455506  0.04910976  0.00000000       0.033
   0.01841621  0.03683241  0.00000000       0.033
   0.01227735  0.02455506  0.00000000       0.033
   0.00613886  0.01227735  0.00000000       0.033
   0.00000000  0.00000000  0.00000000       0.033
  -0.00000000  0.01315433  0.00000000       0.033
  -0.00000000  0.02630902  0.00000000       0.033
  -0.00000000  0.03946335  0.00000000       0.033
   0.00000000  0.05261768 -0.00000000       0.033
  -0.00000000  0.06577201  0.00000000       0.033
  -0.00000000  0.07892670  0.00000000       0.033
   0.00000000  0.09208103  0.00000000       0.033
   0.00000000  0.10523536 -0.00000000       0.033
  -0.00000000  0.11839006  0.00000000       0.033
  -0.00000000  0.13154438  0.00000000       0.033
   0.00000000  0.14469871 -0.00000000       0.033
   0.00000000  0.15785304 -0.00000000       0.033
   0.00000000  0.17100773 -0.00000000       0.033
   0.00000000  0.18416206  0.00000000       0.033
 
 k-points in reciprocal lattice and weights: KPOINTS created by Atomic Simulation Env
   0.50000000  0.25000000  0.75000000       0.033
   0.46666700  0.23333300  0.70000000       0.033
   0.43333300  0.21666700  0.65000000       0.033
   0.40000000  0.20000000  0.60000000       0.033
   0.36666700  0.18333300  0.55000000       0.033
   0.33333300  0.16666700  0.50000000       0.033
   0.30000000  0.15000000  0.45000000       0.033
   0.26666700  0.13333300  0.40000000       0.033
   0.23333300  0.11666700  0.35000000       0.033
   0.20000000  0.10000000  0.30000000       0.033
   0.16666700  0.08333300  0.25000000       0.033
   0.13333300  0.06666700  0.20000000       0.033
   0.10000000  0.05000000  0.15000000       0.033
   0.06666700  0.03333300  0.10000000       0.033
   0.03333300  0.01666700  0.05000000       0.033
   0.00000000  0.00000000  0.00000000       0.033
   0.03571400  0.00000000  0.03571400       0.033
   0.07142900  0.00000000  0.07142900       0.033
   0.10714300  0.00000000  0.10714300       0.033
   0.14285700  0.00000000  0.14285700       0.033
   0.17857100  0.00000000  0.17857100       0.033
   0.21428600  0.00000000  0.21428600       0.033
   0.25000000  0.00000000  0.25000000       0.033
   0.28571400  0.00000000  0.28571400       0.033
   0.32142900  0.00000000  0.32142900       0.033
   0.35714300  0.00000000  0.35714300       0.033
   0.39285700  0.00000000  0.39285700       0.033
   0.42857100  0.00000000  0.42857100       0.033
   0.46428600  0.00000000  0.46428600       0.033
   0.50000000  0.00000000  0.50000000       0.033
 
 position of ions in fractional coordinates (direct lattice) 
   0.00000000  0.00000000  0.00000000
   0.25000000  0.25000000  0.25000000
 
 position of ions in cartesian coordinates  (Angst):
   0.00000000  0.00000000  0.00000000
   1.35750000  1.35750000  1.35750000
 


--------------------------------------------------------------------------------------------------------


 k-point  1 :   0.5000 0.2500 0.7500  plane waves:     360
 k-point  2 :   0.4667 0.2333 0.7000  plane waves:     360
 k-point  3 :   0.4333 0.2167 0.6500  plane waves:     353
 k-point  4 :   0.4000 0.2000 0.6000  plane waves:     353
 k-point  5 :   0.3667 0.1833 0.5500  plane waves:     349
 k-point  6 :   0.3333 0.1667 0.5000  plane waves:     343
 k-point  7 :   0.3000 0.1500 0.4500  plane waves:     349
 k-point  8 :   0.2667 0.1333 0.4000  plane waves:     348
 k-point  9 :   0.2333 0.1167 0.3500  plane waves:     343
 k-point 10 :   0.2000 0.1000 0.3000  plane waves:     343
 k-point 11 :   0.1667 0.0833 0.2500  plane waves:     349
 k-point 12 :   0.1333 0.0667 0.2000  plane waves:     344
 k-point 13 :   0.1000 0.0500 0.1500  plane waves:     339
 k-point 14 :   0.0667 0.0333 0.1000  plane waves:     335
 k-point 15 :   0.0333 0.0167 0.0500  plane waves:     335
 k-point 16 :   0.0000 0.0000 0.0000  plane waves:     339
 k-point 17 :   0.0357 0.0000 0.0357  plane waves:     335
 k-point 18 :   0.0714 0.0000 0.0714  plane waves:     335
 k-point 19 :   0.1071 0.0000 0.1071  plane waves:     339
 k-point 20 :   0.1429 0.0000 0.1429  plane waves:     339
 k-point 21 :   0.1786 0.0000 0.1786  plane waves:     347
 k-point 22 :   0.2143 0.0000 0.2143  plane waves:     347
 k-point 23 :   0.2500 0.0000 0.2500  plane waves:     343
 k-point 24 :   0.2857 0.0000 0.2857  plane waves:     347
 k-point 25 :   0.3214 0.0000 0.3214  plane waves:     347
 k-point 26 :   0.3571 0.0000 0.3571  plane waves:     351
 k-point 27 :   0.3929 0.0000 0.3929  plane waves:     343
 k-point 28 :   0.4286 0.0000 0.4286  plane waves:     351
 k-point 29 :   0.4643 0.0000 0.4643  plane waves:     343
 k-point 30 :   0.5000 0.0000 0.5000  plane waves:     342

 maximum and minimum number of plane-waves per node :       360      335

 maximum number of plane-waves:       360
 maximum index in each direction: 
   IXMAX=    4   IYMAX=    4   IZMAX=    4
   IXMIN=   -5   IYMIN=   -5   IZMIN=   -5

 WARNING: aliasing errors must be expected set NGX to  20 to avoid them
 WARNING: aliasing errors must be expected set NGY to  20 to avoid them
 WARNING: aliasing errors must be expected set NGZ to  20 to avoid them
 aliasing errors are usually negligible using standard VASP settings
 and one can safely disregard these warnings

 serial   3D FFT for wavefunctions
 parallel 3D FFT for charge:
    minimum data exchange during FFTs selected (reduces bandwidth)


 total amount of memory used by VASP on root node    31271. kBytes
========================================================================

   base      :      30000. kBytes
   nonl-proj :        718. kBytes
   fftplans  :         93. kBytes
   grid      :        270. kBytes
   one-center:          6. kBytes
   wavefun   :        184. kBytes
 
 initial charge density was supplied:
 number of electron       7.9999993 magnetization 
 keeping initial charge density in first step


--------------------------------------------------------------------------------------------------------


 Maximum index for augmentation-charges          253 (set IRDMAX)


--------------------------------------------------------------------------------------------------------


 First call to EWALD:  gamma=   0.518
 Maximum number of real-space cells 3x 3x 3
 Maximum number of reciprocal cells 3x 3x 3

 FEWALD executed in parallel
    FEWALD:  cpu time    0.00: real time    0.00


----------------------------------------- Iteration    1(   1)  ---------------------------------------


    POTLOK:  cpu time    0.00: real time    0.00
    SETDIJ:  cpu time    0.00: real time    0.00
     EDDAV:  cpu time    0.12: real time    0.12
       DOS:  cpu time    0.00: real time    0.00
    --------------------------------------------
      LOOP:  cpu time    0.13: real time    0.13

 eigenvalue-minimisations  :  1312
 total energy-change (2. order) :-0.7154418E+01  (-0.5073420E+02)
 number of electron       7.9999993 magnetization 
 augmentation part        7.9999993 magnetization 

 Free energy of the ion-electron system (eV)
  ---------------------------------------------------
  alpha Z        PSCENC =         2.37286213
  Ewald energy   TEWEN  =      -228.56352493
  -1/2 Hartree   DENC   =       -14.84277009
  -exchange  EXHF       =         0.00000000
  -V(xc)+E(xc)   XCENC  =       -17.96561312
  PAW double counting   =      1064.16681478    -1029.56818613
  entropy T*S    EENTRO =         0.00596081
  eigenvalues    EBANDS =        10.38642310
  atomic energy  EATOM  =       206.85361532
  ---------------------------------------------------
  free energy    TOTEN  =        -7.15441813 eV

  energy without entropy =       -7.16037894  energy(sigma->0) =       -7.15640507


--------------------------------------------------------------------------------------------------------




----------------------------------------- Iteration    1(   2)  ---------------------------------------


     EDDAV:  cpu time    0.10: real time    0.10
       DOS:  cpu time    0.00: real time    0.00
    --------------------------------------------
      LOOP:  cpu time    0.10: real time    0.10

 eigenvalue-minimisations  :  1168
 total energy-change (2. order) :-0.3869102E+00  (-0.3869288E+00)
 number of electron       7.9999993 magnetization 
 augmentation part        7.9999993 magnetization 

 Free energy of the ion-electron system (eV)
  ---------------------------------------------------
  alpha Z        PSCENC =         2.37286213
  Ewald energy   TEWEN  =      -228.56352493
  -1/2 Hartree   DENC   =       -14.84277009
  -exchange  EXHF       =         0.00000000
  -V(xc)+E(xc)   XCENC  =       -17.96561312
  PAW double counting   =      1064.16681478    -1029.56818613
  entropy T*S    EENTRO =         0.00655275
  eigenvalues    EBANDS =         9.99892100
  atomic energy  EATOM  =       206.85361532
  ---------------------------------------------------
  free energy    TOTEN  =        -7.54132829 eV

  energy without entropy =       -7.54788105  energy(sigma->0) =       -7.54351254


--------------------------------------------------------------------------------------------------------




----------------------------------------- Iteration    1(   3)  ---------------------------------------


     EDDAV:  cpu time    0.16: real time    0.16
       DOS:  cpu time    0.00: real time    0.00
    --------------------------------------------
      LOOP:  cpu time    0.16: real time    0.17

 eigenvalue-minimisations  :  1616
 total energy-change (2. order) :-0.1679412E-02  (-0.1679417E-02)
 number of electron       7.9999993 magnetization 
 augmentation part        7.9999993 magnetization 

 Free energy of the ion-electron system (eV)
  ---------------------------------------------------
  alpha Z        PSCENC =         2.37286213
  Ewald energy   TEWEN  =      -228.56352493
  -1/2 Hartree   DENC   =       -14.84277009
  -exchange  EXHF       =         0.00000000
  -V(xc)+E(xc)   XCENC  =       -17.96561312
  PAW double counting   =      1064.16681478    -1029.56818613
  entropy T*S    EENTRO =         0.00655863
  eigenvalues    EBANDS =         9.99723570
  atomic energy  EATOM  =       206.85361532
  ---------------------------------------------------
  free energy    TOTEN  =        -7.54300771 eV

  energy without entropy =       -7.54956634  energy(sigma->0) =       -7.54519392


--------------------------------------------------------------------------------------------------------




----------------------------------------- Iteration    1(   4)  ---------------------------------------


     EDDAV:  cpu time    0.11: real time    0.11
       DOS:  cpu time    0.00: real time    0.00
    --------------------------------------------
      LOOP:  cpu time    0.11: real time    0.12

 eigenvalue-minimisations  :  1264
 total energy-change (2. order) :-0.2309010E-06  (-0.2302789E-06)
 number of electron       7.9999993 magnetization 
 augmentation part        7.9999993 magnetization 

 Free energy of the ion-electron system (eV)
  ---------------------------------------------------
  alpha Z        PSCENC =         2.37286213
  Ewald energy   TEWEN  =      -228.56352493
  -1/2 Hartree   DENC   =       -14.84277009
  -exchange  EXHF       =         0.00000000
  -V(xc)+E(xc)   XCENC  =       -17.96561312
  PAW double counting   =      1064.16681478    -1029.56818613
  entropy T*S    EENTRO =         0.00655864
  eigenvalues    EBANDS =         9.99723547
  atomic energy  EATOM  =       206.85361532
  ---------------------------------------------------
  free energy    TOTEN  =        -7.54300794 eV

  energy without entropy =       -7.54956657  energy(sigma->0) =       -7.54519415


--------------------------------------------------------------------------------------------------------




 average (electrostatic) potential at core
  the test charge radii are     0.9892
  (the norm of the test charge is              1.0000)
       1 -84.8894       2 -84.8894
 
 
 
 E-fermi :   5.9253     XC(G=0):  -9.6074     alpha+bet :-12.0925


 k-point   1 :       0.5000    0.2500    0.7500
  band No.  band energies     occupation 
      1      -1.8713      2.00000
      2      -1.8713      2.00000
      3       1.8963      2.00000
      4       1.8963      2.00000
      5       9.9850     -0.00000
      6       9.9851     -0.00000
      7      10.7183     -0.00000
      8      10.7183     -0.00000
      9      16.3169      0.00000
     10      16.3169      0.00000
     11      18.7648      0.00000
     12      18.7648      0.00000
     13      22.1202      0.00000
     14      22.1202      0.00000
     15      24.2144      0.00000
     16      24.2243      0.00000

 k-point   2 :       0.4667    0.2333    0.7000
  band No.  band energies     occupation 
      1      -2.2098      2.00000
      2      -1.5467      2.00000
      3       1.7302      2.00000
      4       2.1504      2.00000
      5       9.7732     -0.00000
      6       9.8084     -0.00000
      7      10.4844     -0.00000
      8      11.4381      0.00000
      9      15.6548      0.00000
     10      16.6942      0.00000
     11      18.3618      0.00000
     12      19.3918      0.00000
     13      21.4862      0.00000
     14      22.5028      0.00000
     15      23.7342      0.00000
     16      23.8699      0.00000

 k-point   3 :       0.4333    0.2167    0.6500
  band No.  band energies     occupation 
      1      -2.6031      2.00000
      2      -1.1837      2.00000
      3       1.6936      2.00000
      4       2.4434      2.00000
      5       9.4489     -0.00000
      6       9.6041     -0.00000
      7      10.2972     -0.00000
      8      12.4437      0.00000
      9      14.9259      0.00000
     10      16.5005      0.00000
     11      18.5480      0.00000
     12      19.9211      0.00000
     13      20.8100      0.00000
     14      22.3634      0.00000
     15      22.5649      0.00000
     16      24.2577      0.00000

 k-point   4 :       0.4000    0.2000    0.6000
  band No.  band energies     occupation 
      1      -3.0288      2.00000
      2      -0.7831      2.00000
      3       1.7693      2.00000
      4       2.7671      2.00000
      5       9.1121     -0.00000
      6       9.4832     -0.00000
      7      10.1518     -0.00000
      8      13.5065      0.00000
      9      14.1969      0.00000
     10      15.9529      0.00000
     11      19.0528      0.00000
     12      20.0911      0.00000
     13      20.1666      0.00000
     14      21.3866      0.00000
     15      22.2677      0.00000
     16      24.3885      0.00000

 k-point   5 :       0.3667    0.1833    0.5500
  band No.  band energies     occupation 
      1      -3.4647      2.00000
      2      -0.3446      2.00000
      3       1.9381      2.00000
      4       3.1140      2.00000
      5       8.8192     -0.00000
      6       9.4212     -0.00000
      7      10.0425     -0.00000
      8      13.4894      0.00000
      9      14.5857      0.00000
     10      15.3472      0.00000
     11      19.3405      0.00000
     12      19.6513      0.00000
     13      19.8791      0.00000
     14      20.4435      0.00000
     15      22.4426      0.00000
     16      23.8598      0.00000

 k-point   6 :       0.3333    0.1667    0.5000
  band No.  band energies     occupation 
      1      -3.8928      2.00000
      2       0.1315      2.00000
      3       2.1833      2.00000
      4       3.4736      2.00000
      5       8.5733     -0.00000
      6       9.4257     -0.00000
      7       9.9606     -0.00000
      8      12.8088      0.00000
      9      14.7628      0.00000
     10      15.6133      0.00000
     11      18.7212      0.00000
     12      18.9659      0.00000
     13      19.5518      0.00000
     14      20.6626      0.00000
     15      22.2720      0.00000
     16      23.6609      0.00000

 k-point   7 :       0.3000    0.1500    0.4500
  band No.  band energies     occupation 
      1      -4.3005      2.00000
      2       0.6445      2.00000
      3       2.4909      2.00000
      4       3.8335      2.00000
      5       8.3735     -0.00000
      6       9.4971     -0.00000
      7       9.8918     -0.00000
      8      12.1538      0.00000
      9      14.2226      0.00000
     10      16.4200      0.00000
     11      17.6270      0.00000
     12      18.4397      0.00000
     13      19.3936      0.00000
     14      21.2274      0.00000
     15      21.4940      0.00000
     16      24.1172      0.00000

 k-point   8 :       0.2667    0.1333    0.4000
  band No.  band energies     occupation 
      1      -4.6786      2.00000
      2       1.1940      2.00000
      3       2.8509      2.00000
      4       4.1827      2.00000
      5       8.2238     -0.00000
      6       9.6001     -0.00000
      7       9.8705     -0.00000
      8      11.5367      0.00000
      9      13.7544      0.00000
     10      16.5274      0.00000
     11      16.7298      0.00000
     12      17.9965      0.00000
     13      19.6092      0.00000
     14      20.7655      0.00000
     15      21.6321      0.00000
     16      24.0176      0.00000

 k-point   9 :       0.2333    0.1167    0.3500
  band No.  band energies     occupation 
      1      -5.0210      2.00000
      2       1.7788      2.00000
      3       3.2525      2.00000
      4       4.5107      2.00000
      5       8.1243     -0.00000
      6       9.5815     -0.00000
      7      10.0310     -0.00000
      8      10.9571     -0.00000
      9      13.3542      0.00000
     10      15.5010      0.00000
     11      16.5294      0.00000
     12      17.6231      0.00000
     13      19.3790      0.00000
     14      21.0740      0.00000
     15      21.4628      0.00000
     16      23.9600      0.00000

 k-point  10 :       0.2000    0.1000    0.3000
  band No.  band energies     occupation 
      1      -5.3237      2.00000
      2       2.3964      2.00000
      3       3.6852      2.00000
      4       4.8097      2.00000
      5       8.0724     -0.00000
      6       9.4510     -0.00000
      7      10.3287     -0.00000
      8      10.4105     -0.00000
      9      12.9892      0.00000
     10      14.6116      0.00000
     11      16.0755      0.00000
     12      17.3177      0.00000
     13      18.7108      0.00000
     14      20.7835      0.00000
     15      22.1806      0.00000
     16      24.3888      0.00000

 k-point  11 :       0.1667    0.0833    0.2500
  band No.  band energies     occupation 
      1      -5.5836      2.00000
      2       3.0423      2.00000
      3       4.1361      2.00000
      4       5.0763      2.00000
      5       8.0640     -0.00000
      6       9.2680     -0.00000
      7       9.9001     -0.00000
      8      10.6252     -0.00000
      9      12.6046      0.00000
     10      13.9826      0.00000
     11      15.5116      0.00000
     12      17.0854      0.00000
     13      18.1163      0.00000
     14      19.9479      0.00000
     15      23.4684      0.00000
     16      24.1584      0.00000

 k-point  12 :       0.1333    0.0667    0.2000
  band No.  band energies     occupation 
      1      -5.7985      2.00000
      2       3.7099      2.00000
      3       4.5904      2.00000
      4       5.3098      2.00012
      5       8.0964     -0.00000
      6       9.0576     -0.00000
      7       9.4339     -0.00000
      8      10.6794     -0.00000
      9      12.3633      0.00000
     10      13.6840      0.00000
     11      14.9142      0.00000
     12      16.9357      0.00000
     13      17.6553      0.00000
     14      19.1183      0.00000
     15      23.2204      0.00000
     16      24.8246      0.00000

 k-point  13 :       0.1000    0.0500    0.1500
  band No.  band energies     occupation 
      1      -5.9669      2.00000
      2       4.3845      2.00000
      3       5.0255      2.00000
      4       5.5050      2.01136
      5       8.1575     -0.00000
      6       8.8404     -0.00000
      7       9.0155     -0.00000
      8      10.2597     -0.00000
      9      12.5696      0.00000
     10      13.5848      0.00000
     11      14.3486      0.00000
     12      16.8668      0.00000
     13      17.3186      0.00000
     14      18.3353      0.00000
     15      22.3058      0.00000
     16      26.1807      0.00000

 k-point  14 :       0.0667    0.0333    0.1000
  band No.  band energies     occupation 
      1      -6.0879      2.00000
      2       5.0303      2.00000
      3       5.4083      2.00157
      4       5.6570      2.06735
      5       8.2303     -0.00000
      6       8.6300     -0.00000
      7       8.6616     -0.00000
      8       9.6507     -0.00000
      9      13.0094      0.00000
     10      13.5715      0.00000
     11      13.8792      0.00000
     12      16.8645      0.00000
     13      17.0921      0.00000
     14      17.6435      0.00000
     15      21.5478      0.00000
     16      27.4747      0.00000

 k-point  15 :       0.0333    0.0167    0.0500
  band No.  band energies     occupation 
      1      -6.1608      2.00000
      2       5.5619      2.02759
      3       5.6852      2.07073
      4       5.7554      2.00311
      5       8.2907     -0.00000
      6       8.4094     -0.00000
      7       8.4282     -0.00000
      8       9.1634     -0.00000
      9      13.4164      0.00000
     10      13.5659      0.00000
     11      13.5828      0.00000
     12      16.8969      0.00000
     13      16.9598      0.00000
     14      17.1224      0.00000
     15      21.0366      0.00000
     16      28.5034      0.00000

 k-point  16 :       0.0000    0.0000    0.0000
  band No.  band energies     occupation 
      1      -6.1852      2.00000
      2       5.7886      1.90777
      3       5.7886      1.90773
      4       5.7886      1.90773
      5       8.3142     -0.00000
      6       8.3142     -0.00000
      7       8.3142     -0.00000
      8       8.9894     -0.00000
      9      13.4552      0.00000
     10      13.5897      0.00000
     11      13.5897      0.00000
     12      16.9136      0.00000
     13      16.9137      0.00000
     14      16.9137      0.00000
     15      20.8535      0.00000
     16      28.8991      0.00000

 k-point  17 :       0.0357    0.0000    0.0357
  band No.  band energies     occupation 
      1      -6.1628      2.00000
      2       5.6370      2.06035
      3       5.6949      2.06910
      4       5.6950      2.06909
      5       8.2565     -0.00000
      6       8.4366     -0.00000
      7       8.4366     -0.00000
      8       9.1384     -0.00000
      9      13.3999      0.00000
     10      13.5570      0.00000
     11      13.6144      0.00000
     12      16.9561      0.00000
     13      16.9561      0.00000
     14      17.0456      0.00000
     15      21.0238      0.00000
     16      28.5624      0.00000

 k-point  18 :       0.0714    0.0000    0.0714
  band No.  band energies     occupation 
      1      -6.0958      2.00000
      2       5.2459      2.00002
      3       5.4542      2.00432
      4       5.4542      2.00432
      5       8.0967     -0.00000
      6       8.7587     -0.00000
      7       8.7587     -0.00000
      8       9.5025     -0.00000
      9      12.9472      0.00000
     10      13.6887      0.00000
     11      13.8479      0.00000
     12      17.0748      0.00000
     13      17.0748      0.00000
     14      17.3461      0.00000
     15      21.5180      0.00000
     16      27.7701      0.00000

 k-point  19 :       0.1071    0.0000    0.1071
  band No.  band energies     occupation 
      1      -5.9843      2.00000
      2       4.7242      2.00000
      3       5.1421      2.00000
      4       5.1421      2.00000
      5       7.8674     -0.00000
      6       9.2053     -0.00000
      7       9.2053     -0.00000
      8       9.9078     -0.00000
      9      12.4503      0.00000
     10      13.8126      0.00000
     11      14.2941      0.00000
     12      17.2717      0.00000
     13      17.2717      0.00000
     14      17.6990      0.00000
     15      22.2863      0.00000
     16      26.8313      0.00000

 k-point  20 :       0.1429    0.0000    0.1429
  band No.  band energies     occupation 
      1      -5.8288      2.00000
      2       4.1399      2.00000
      3       4.8087      2.00000
      4       4.8087      2.00000
      5       7.6028     -0.00000
      6       9.7256     -0.00000
      7       9.7256     -0.00000
      8      10.0997     -0.00000
      9      12.2160      0.00000
     10      13.9858      0.00000
     11      14.8588      0.00000
     12      17.5454      0.00000
     13      17.5454      0.00000
     14      18.0686      0.00000
     15      23.2561      0.00000
     16      25.8581      0.00000

 k-point  21 :       0.1786    0.0000    0.1786
  band No.  band energies     occupation 
      1      -5.6296      2.00000
      2       3.5233      2.00000
      3       4.4785      2.00000
      4       4.4785      2.00000
      5       7.3296     -0.00000
      6       9.8667     -0.00000
      7      10.2900     -0.00000
      8      10.2900     -0.00000
      9      12.4671      0.00000
     10      14.2034      0.00000
     11      15.5104      0.00000
     12      17.8865      0.00000
     13      17.8865      0.00000
     14      18.4682      0.00000
     15      24.3595      0.00000
     16      24.8817      0.00000

 k-point  22 :       0.2143    0.0000    0.2143
  band No.  band energies     occupation 
      1      -5.3873      2.00000
      2       2.8925      2.00000
      3       4.1696      2.00000
      4       4.1696      2.00000
      5       7.0681     -0.00000
      6       9.3794     -0.00000
      7      10.8856     -0.00000
      8      10.8856     -0.00000
      9      13.0355      0.00000
     10      14.4750      0.00000
     11      16.2216      0.00000
     12      18.2922      0.00000
     13      18.2922      0.00000
     14      18.8998      0.00000
     15      23.9513      0.00000
     16      23.9520      0.00000

 k-point  23 :       0.2500    0.0000    0.2500
  band No.  band energies     occupation 
      1      -5.1025      2.00000
      2       2.2545      2.00000
      3       3.8880      2.00000
      4       3.8880      2.00000
      5       6.8318     -0.00000
      6       8.8350     -0.00000
      7      11.5070      0.00000
      8      11.5070      0.00000
      9      13.7332      0.00000
     10      14.7957      0.00000
     11      16.9673      0.00000
     12      18.7369      0.00000
     13      18.7369      0.00000
     14      19.3868      0.00000
     15      23.1035      0.00000
     16      23.1039      0.00000

 k-point  24 :       0.2857    0.0000    0.2857
  band No.  band energies     occupation 
      1      -4.7766      2.00000
      2       1.6141      2.00000
      3       3.6379      2.00000
      4       3.6379      2.00000
      5       6.6282     -0.00001
      6       8.3097     -0.00000
      7      12.1382      0.00000
      8      12.1382      0.00000
      9      14.4757      0.00000
     10      15.1562      0.00000
     11      17.7122      0.00000
     12      19.1374      0.00000
     13      19.1374      0.00000
     14      19.9372      0.00000
     15      22.4032      0.00000
     16      22.4036      0.00000

 k-point  25 :       0.3214    0.0000    0.3214
  band No.  band energies     occupation 
      1      -4.4106      2.00000
      2       0.9758      2.00000
      3       3.4229      2.00000
      4       3.4229      2.00000
      5       6.4647     -0.00092
      6       7.8330     -0.00000
      7      12.7834      0.00000
      8      12.7835      0.00000
      9      15.2315      0.00000
     10      15.5741      0.00000
     11      18.4081      0.00000
     12      19.3184      0.00000
     13      19.3184      0.00000
     14      20.5602      0.00000
     15      22.0384      0.00000
     16      22.0396      0.00000

 k-point  26 :       0.3571    0.0000    0.3571
  band No.  band energies     occupation 
      1      -4.0055      2.00000
      2       0.3437      2.00000
      3       3.2441      2.00000
      4       3.2441      2.00000
      5       6.3477     -0.01094
      6       7.4158     -0.00000
      7      13.4392      0.00000
      8      13.4393      0.00000
      9      15.9809      0.00000
     10      16.0405      0.00000
     11      18.9766      0.00000
     12      19.0571      0.00000
     13      19.0571      0.00000
     14      21.2595      0.00000
     15      21.4905      0.00000
     16      22.2083      0.00000

 k-point  27 :       0.3929    0.0000    0.3929
  band No.  band energies     occupation 
      1      -3.5637      2.00000
      2      -0.2778      2.00000
      3       3.1046      2.00000
      4       3.1047      2.00000
      5       6.2795     -0.03113
      6       7.0642     -0.00000
      7      14.1116      0.00000
      8      14.1117      0.00000
      9      16.5584      0.00000
     10      16.7133      0.00000
     11      18.5186      0.00000
     12      18.5186      0.00000
     13      19.3107      0.00000
     14      20.6569      0.00000
     15      22.0340      0.00000
     16      22.8058      0.00000

 k-point  28 :       0.4286    0.0000    0.4286
  band No.  band energies     occupation 
      1      -3.0871      2.00000
      2      -0.8857      2.00000
      3       3.0041      2.00000
      4       3.0041      2.00000
      5       6.2625     -0.03830
      6       6.7767     -0.00000
      7      14.7733      0.00000
      8      14.7733      0.00000
      9      17.1204      0.00000
     10      17.4084      0.00000
     11      17.8508      0.00000
     12      17.8508      0.00000
     13      19.3354      0.00000
     14      19.8630      0.00000
     15      22.8647      0.00000
     16      23.6250      0.00000

 k-point  29 :       0.4643    0.0000    0.4643
  band No.  band energies     occupation 
      1      -2.5779      2.00000
      2      -1.4738      2.00000
      3       2.9441      2.00000
      4       2.9441      2.00000
      5       6.3023     -0.02276
      6       6.5566     -0.00008
      7      15.4106      0.00000
      8      15.4106      0.00000
      9      17.2041      0.00000
     10      17.2041      0.00000
     11      17.7558      0.00000
     12      18.0545      0.00000
     13      19.0782      0.00000
     14      19.1149      0.00000
     15      23.7502      0.00000
     16      24.5660      0.00000

 k-point  30 :       0.5000    0.0000    0.5000
  band No.  band energies     occupation 
      1      -2.0391      2.00000
      2      -2.0391      2.00000
      3       2.9240      2.00000
      4       2.9240      2.00000
      5       6.3992     -0.00406
      6       6.3993     -0.00406
      7      15.7756      0.00000
      8      15.7756      0.00000
      9      16.8302      0.00000
     10      16.8302      0.00000
     11      18.4122      0.00000
     12      18.4122      0.00000
     13      18.6263      0.00000
     14      18.6263      0.00000
     15      24.5744      0.00000
     16      24.5755      0.00000


--------------------------------------------------------------------------------------------------------


 soft charge-density along one line, spin component           1
         0         1         2         3         4         5         6         7         8         9
 total charge-density along one line
 
 pseudopotential strength for first ion, spin component:           1
 19.453  27.062   0.000   0.000   0.000   0.000   0.000   0.000
 27.062  37.651   0.000   0.000   0.000   0.000   0.000   0.000
  0.000   0.000   4.362  -0.000  -0.000   8.107  -0.000  -0.000
  0.000   0.000  -0.000   4.362  -0.000  -0.000   8.107  -0.000
  0.000   0.000  -0.000  -0.000   4.362  -0.000  -0.000   8.107
  0.000   0.000   8.107  -0.000  -0.000  15.080  -0.000  -0.000
  0.000   0.000  -0.000   8.107  -0.000  -0.000  15.080  -0.000
  0.000   0.000  -0.000  -0.000   8.107  -0.000  -0.000  15.080
 total augmentation occupancy for first ion, spin component:           1
  2.000   0.000   0.000   0.000   0.000   0.000   0.000   0.000
  0.000   0.000   0.000   0.000   0.000   0.000   0.000   0.000
  0.000   0.000   0.667   0.000   0.000   0.000   0.000   0.000
  0.000   0.000   0.000   0.667   0.000   0.000   0.000   0.000
  0.000   0.000   0.000   0.000   0.667   0.000   0.000   0.000
  0.000   0.000   0.000   0.000   0.000   0.000   0.000   0.000
  0.000   0.000   0.000   0.000   0.000   0.000   0.000   0.000
  0.000   0.000   0.000   0.000   0.000   0.000   0.000   0.000


------------------------ aborting loop because EDIFF is reached ----------------------------------------


    CHARGE:  cpu time    0.00: real time    0.00
    FORLOC:  cpu time    0.00: real time    0.00
    FORNL :  cpu time    0.00: real time    0.00
    STRESS:  cpu time    0.02: real time    0.02
    FORCOR:  cpu time    0.00: real time    0.00
    FORHAR:  cpu time    0.00: real time    0.00

  FORCE on cell =-STRESS in cart. coord.  units (eV):
  Direction    XX          YY          ZZ          XY          YZ          ZX
  --------------------------------------------------------------------------------------
  Alpha Z     2.37286     2.37286     2.37286
  Ewald     -76.18788   -76.18788   -76.18788     0.00000    -0.00000     0.00000
  Hartree     5.64635     5.94841     5.68256    -0.11342     0.00001     0.00001
  E(xc)     -26.20139   -25.71478   -26.12726     0.07646     0.00000     0.00000
  Local     -36.08781   -26.64298   -34.66967     2.10254    -0.00000     0.00006
  n-local    82.80150    75.55284    81.53364    -1.13843     0.00001    -0.00003
  augment   -12.38857   -11.44653   -12.25891     0.11655    -0.00005    -0.00006
  Kinetic    63.34822    59.08761    65.13718     0.65613    -0.00001    -0.00001
  Fock        0.00000     0.00000     0.00000     0.00000     0.00000     0.00000
  -------------------------------------------------------------------------------------
  Total       3.30329     2.96956     5.48253     1.69982    -0.00003    -0.00003
  in kB     132.22639   118.86743   219.45818    68.04168    -0.00137    -0.00111
  external pressure =      156.85 kB  Pullay stress =        0.00 kB


 VOLUME and BASIS-vectors are now :
 -----------------------------------------------------------------------------
  energy-cutoff  :      245.70
  volume of cell :       40.03
      direct lattice vectors                 reciprocal lattice vectors
     0.000000000  2.715000000  2.715000000    -0.184162063  0.184162063  0.184162063
     2.715000000  0.000000000  2.715000000     0.184162063 -0.184162063  0.184162063
     2.715000000  2.715000000  0.000000000     0.184162063  0.184162063 -0.184162063

  length of vectors
     3.839589822  3.839589822  3.839589822     0.318978049  0.318978049  0.318978049


 FORCES acting on ions
    electron-ion (+dipol)            ewald-force                    non-local-force                 convergence-correction
 -----------------------------------------------------------------------------------------------
   0.130E-03 0.116E-03 -.145E+01   -.476E-15 -.149E-14 0.391E-14   -.124E-03 -.116E-03 0.504E+00   -.806E-05 -.700E-05 0.274E+00
   -.130E-03 -.115E-03 0.145E+01   0.623E-15 0.106E-14 -.375E-14   0.124E-03 0.116E-03 -.504E+00   0.806E-05 0.700E-05 -.274E+00
 -----------------------------------------------------------------------------------------------
   0.457E-08 0.127E-07 -.990E-08   0.147E-15 -.426E-15 0.164E-15   0.661E-08 -.938E-08 0.198E-07   -.999E-09 0.803E-09 0.392E-09
 
 
 POSITION                                       TOTAL-FORCE (eV/Angst)
 -----------------------------------------------------------------------------------
      0.00000      0.00000      0.00000        -0.000002     -0.000008     -0.674526
      1.35750      1.35750      1.35750         0.000002      0.000008      0.674526
 -----------------------------------------------------------------------------------
    total drift:                                0.000000      0.000000      0.000000


--------------------------------------------------------------------------------------------------------



  FREE ENERGIE OF THE ION-ELECTRON SYSTEM (eV)
  ---------------------------------------------------
  free  energy   TOTEN  =        -7.54300794 eV

  energy  without entropy=       -7.54956657  energy(sigma->0) =       -7.54519415
 


--------------------------------------------------------------------------------------------------------


    POTLOK:  cpu time    0.00: real time    0.00


--------------------------------------------------------------------------------------------------------


 writing wavefunctions
     LOOP+:  cpu time    0.56: real time    0.61
    4ORBIT:  cpu time    0.00: real time    0.00

 total amount of memory used by VASP on root node    31271. kBytes
========================================================================

   base      :      30000. kBytes
   nonl-proj :        718. kBytes
   fftplans  :         93. kBytes
   grid      :        270. kBytes
   one-center:          6. kBytes
   wavefun   :        184. kBytes
 
  
  
 General timing and accounting informations for this job:
 ========================================================
  
                  Total CPU time used (sec):        0.748
                            User time (sec):        0.689
                          System time (sec):        0.059
                         Elapsed time (sec):        0.818
  
                   Maximum memory used (kb):       37128.
                   Average memory used (kb):           0.
  
                          Minor page faults:         4938
                          Major page faults:            0
                 Voluntary context switches:          300
