<?xml version="1.0" encoding="ISO-8859-1"?>
<modeling>
 <generator>
  <i name="program" type="string">vasp </i>
  <i name="version" type="string">5.3.3.4  </i>
  <i name="subversion" type="string">18Dez12 (build Jun 09 2015 23:14:47) complex                        parallel </i>
  <i name="platform" type="string">half-orig-parallel </i>
  <i name="date" type="string">2019 07 24 </i>
  <i name="time" type="string">21:00:50 </i>
 </generator>
 <incar>
  <i type="string" name="PREC">normal</i>
  <i type="int" name="ICHARG">    11</i>
  <i type="int" name="ISYM">     0</i>
 </incar>
 <kpoints>
  <varray name="kpointlist" >
   <v>       0.50000000       0.25000000       0.75000000 </v>
   <v>       0.46666700       0.23333300       0.70000000 </v>
   <v>       0.43333300       0.21666700       0.65000000 </v>
   <v>       0.40000000       0.20000000       0.60000000 </v>
   <v>       0.36666700       0.18333300       0.55000000 </v>
   <v>       0.33333300       0.16666700       0.50000000 </v>
   <v>       0.30000000       0.15000000       0.45000000 </v>
   <v>       0.26666700       0.13333300       0.40000000 </v>
   <v>       0.23333300       0.11666700       0.35000000 </v>
   <v>       0.20000000       0.10000000       0.30000000 </v>
   <v>       0.16666700       0.08333300       0.25000000 </v>
   <v>       0.13333300       0.06666700       0.20000000 </v>
   <v>       0.10000000       0.05000000       0.15000000 </v>
   <v>       0.06666700       0.03333300       0.10000000 </v>
   <v>       0.03333300       0.01666700       0.05000000 </v>
   <v>       0.00000000       0.00000000       0.00000000 </v>
   <v>       0.03571400       0.00000000       0.03571400 </v>
   <v>       0.07142900       0.00000000       0.07142900 </v>
   <v>       0.10714300       0.00000000       0.10714300 </v>
   <v>       0.14285700       0.00000000       0.14285700 </v>
   <v>       0.17857100       0.00000000       0.17857100 </v>
   <v>       0.21428600       0.00000000       0.21428600 </v>
   <v>       0.25000000       0.00000000       0.25000000 </v>
   <v>       0.28571400       0.00000000       0.28571400 </v>
   <v>       0.32142900       0.00000000       0.32142900 </v>
   <v>       0.35714300       0.00000000       0.35714300 </v>
   <v>       0.39285700       0.00000000       0.39285700 </v>
   <v>       0.42857100       0.00000000       0.42857100 </v>
   <v>       0.46428600       0.00000000       0.46428600 </v>
   <v>       0.50000000       0.00000000       0.50000000 </v>
  </varray>
  <varray name="weights" >
   <v>       0.03333333 </v>
   <v>       0.03333333 </v>
   <v>       0.03333333 </v>
   <v>       0.03333333 </v>
   <v>       0.03333333 </v>
   <v>       0.03333333 </v>
   <v>       0.03333333 </v>
   <v>       0.03333333 </v>
   <v>       0.03333333 </v>
   <v>       0.03333333 </v>
   <v>       0.03333333 </v>
   <v>       0.03333333 </v>
   <v>       0.03333333 </v>
   <v>       0.03333333 </v>
   <v>       0.03333333 </v>
   <v>       0.03333333 </v>
   <v>       0.03333333 </v>
   <v>       0.03333333 </v>
   <v>       0.03333333 </v>
   <v>       0.03333333 </v>
   <v>       0.03333333 </v>
   <v>       0.03333333 </v>
   <v>       0.03333333 </v>
   <v>       0.03333333 </v>
   <v>       0.03333333 </v>
   <v>       0.03333333 </v>
   <v>       0.03333333 </v>
   <v>       0.03333333 </v>
   <v>       0.03333333 </v>
   <v>       0.03333333 </v>
  </varray>
 </kpoints>
 <parameters>
  <separator name="general" >
   <i type="string" name="SYSTEM">unknown system</i>
   <i type="logical" name="LCOMPAT"> F  </i>
  </separator>
  <separator name="electronic" >
   <i type="string" name="PREC">normal</i>
   <i name="ENMAX">    245.70400000</i>
   <i name="ENAUG">    322.06900000</i>
   <i name="EDIFF">      0.00010000</i>
   <i type="int" name="IALGO">    38</i>
   <i type="int" name="IWAVPR">    10</i>
   <i type="int" name="NBANDS">    16</i>
   <i name="NELECT">      8.00000000</i>
   <i type="int" name="TURBO">     0</i>
   <i type="int" name="IRESTART">     0</i>
   <i type="int" name="NREBOOT">     0</i>
   <i type="int" name="NMIN">     0</i>
   <i name="EREF">      0.00000000</i>
   <separator name="electronic smearing" >
    <i type="int" name="ISMEAR">     1</i>
    <i name="SIGMA">      0.20000000</i>
    <i name="KSPACING">      0.50000000</i>
    <i type="logical" name="KGAMMA"> T  </i>
   </separator>
   <separator name="electronic projectors" >
    <i type="logical" name="LREAL"> F  </i>
    <v name="ROPT">      0.00000000</v>
    <i type="int" name="LMAXPAW">  -100</i>
    <i type="int" name="LMAXMIX">     2</i>
    <i type="logical" name="NLSPLINE"> F  </i>
   </separator>
   <separator name="electronic startup" >
    <i type="int" name="ISTART">     1</i>
    <i type="int" name="ICHARG">    11</i>
    <i type="int" name="INIWAV">     1</i>
   </separator>
   <separator name="electronic spin" >
    <i type="int" name="ISPIN">     1</i>
    <i type="logical" name="LNONCOLLINEAR"> F  </i>
    <v name="MAGMOM">      1.00000000      1.00000000</v>
    <i name="NUPDOWN">     -1.00000000</i>
    <i type="logical" name="LSORBIT"> F  </i>
    <v name="SAXIS">      0.00000000      0.00000000      1.00000000</v>
    <i type="logical" name="LSPIRAL"> F  </i>
    <v name="QSPIRAL">      0.00000000      0.00000000      0.00000000</v>
    <i type="logical" name="LZEROZ"> F  </i>
   </separator>
   <separator name="electronic exchange-correlation" >
    <i type="logical" name="LASPH"> F  </i>
    <i type="logical" name="LMETAGGA"> F  </i>
   </separator>
   <separator name="electronic convergence" >
    <i type="int" name="NELM">    60</i>
    <i type="int" name="NELMDL">     0</i>
    <i type="int" name="NELMIN">     2</i>
    <i name="ENINI">    245.70400000</i>
    <separator name="electronic convergence detail" >
     <i type="logical" name="LDIAG"> T  </i>
     <i type="logical" name="LSUBROT"> T  </i>
     <i name="WEIMIN">      0.00000000</i>
     <i name="EBREAK">      0.00000156</i>
     <i name="DEPER">      0.30000000</i>
     <i type="int" name="NRMM">     4</i>
     <i name="TIME">      0.40000000</i>
    </separator>
   </separator>
   <separator name="electronic mixer" >
    <i name="AMIX">      0.40000000</i>
    <i name="BMIX">      1.00000000</i>
    <i name="AMIN">      0.10000000</i>
    <i name="AMIX_MAG">      1.60000000</i>
    <i name="BMIX_MAG">      1.00000000</i>
    <separator name="electronic mixer details" >
     <i type="int" name="IMIX">     4</i>
     <i type="int" name="MAXMIX">   -45</i>
     <i name="WC">    100.00000000</i>
     <i type="int" name="INIMIX">     1</i>
     <i type="int" name="MIXPRE">     1</i>
     <i type="int" name="MREMOVE">     5</i>
    </separator>
   </separator>
   <separator name="electronic dipolcorrection" >
    <i type="logical" name="LDIPOL"> F  </i>
    <i type="logical" name="LMONO"> F  </i>
    <i type="int" name="IDIPOL">     0</i>
    <i name="EPSILON">      1.00000000</i>
    <v name="DIPOL">   -100.00000000   -100.00000000   -100.00000000</v>
    <i name="EFIELD">      0.00000000</i>
   </separator>
  </separator>
  <separator name="grids" >
   <i type="int" name="NGX">    16</i>
   <i type="int" name="NGY">    16</i>
   <i type="int" name="NGZ">    16</i>
   <i type="int" name="NGXF">    32</i>
   <i type="int" name="NGYF">    32</i>
   <i type="int" name="NGZF">    32</i>
   <i type="logical" name="ADDGRID"> F  </i>
  </separator>
  <separator name="ionic" >
   <i type="int" name="NSW">     0</i>
   <i type="int" name="IBRION">    -1</i>
   <i type="int" name="ISIF">     2</i>
   <i name="PSTRESS">      0.00000000</i>
   <i name="EDIFFG">      0.00100000</i>
   <i type="int" name="NFREE">     0</i>
   <i name="POTIM">      0.50000000</i>
   <i name="SMASS">     -3.00000000</i>
   <i name="SCALEE">      1.00000000</i>
  </separator>
  <separator name="ionic md" >
   <i name="TEBEG">      0.00010000</i>
   <i name="TEEND">      0.00010000</i>
   <i type="int" name="NBLOCK">     1</i>
   <i type="int" name="KBLOCK">     1</i>
   <i type="int" name="NPACO">   256</i>
   <i name="APACO">     16.00000000</i>
  </separator>
  <separator name="symmetry" >
   <i type="int" name="ISYM">     0</i>
   <i name="SYMPREC">      0.00001000</i>
  </separator>
  <separator name="dos" >
   <i type="logical" name="LORBIT"> F  </i>
   <v name="RWIGS">     -1.00000000</v>
   <i type="int" name="NEDOS">   301</i>
   <i name="EMIN">     10.00000000</i>
   <i name="EMAX">    -10.00000000</i>
   <i name="EFERMI">      0.00000000</i>
  </separator>
  <separator name="writing" >
   <i type="int" name="NWRITE">     2</i>
   <i type="logical" name="LWAVE"> T  </i>
   <i type="logical" name="LCHARG"> T  </i>
   <i type="logical" name="LPARD"> F  </i>
   <i type="logical" name="LVTOT"> F  </i>
   <i type="logical" name="LVHAR"> F  </i>
   <i type="logical" name="LELF"> F  </i>
   <i type="logical" name="LOPTICS"> F  </i>
   <v name="STM">      0.00000000      0.00000000      0.00000000      0.00000000      0.00000000      0.00000000      0.00000000</v>
  </separator>
  <separator name="performance" >
   <i type="int" name="NPAR">    16</i>
   <i type="int" name="NSIM">     4</i>
   <i type="int" name="NBLK">    -1</i>
   <i type="logical" name="LPLANE"> T  </i>
   <i type="logical" name="LSCALAPACK"> T  </i>
   <i type="logical" name="LSCAAWARE"> F  </i>
   <i type="logical" name="LSCALU"> F  </i>
   <i type="logical" name="LASYNC"> F  </i>
   <i type="logical" name="LORBITALREAL"> F  </i>
  </separator>
  <separator name="miscellaneous" >
   <i type="int" name="IDIOT">     3</i>
   <i type="logical" name="LMUSIC"> F  </i>
   <v name="POMASS">     28.08500000</v>
   <v name="DARWINR">      0.00000000</v>
   <v name="DARWINV">      1.00000000</v>
   <i type="logical" name="LCORR"> T  </i>
  </separator>
  <i type="logical" name="GGA_COMPAT"> T  </i>
  <i type="logical" name="LBERRY"> F  </i>
  <i type="int" name="ICORELEVEL">     0</i>
  <i type="logical" name="LDAU"> F  </i>
  <i type="int" name="I_CONSTRAINED_M">     0</i>
  <separator name="electronic exchange-correlation" >
   <i type="string" name="GGA">--</i>
   <i type="int" name="VOSKOWN">     0</i>
   <i type="logical" name="LHFCALC"> F  </i>
   <i type="string" name="PRECFOCK"></i>
   <i type="logical" name="LSYMGRAD"> F  </i>
   <i type="logical" name="LHFONE"> F  </i>
   <i type="logical" name="LRHFCALC"> F  </i>
   <i type="logical" name="LTHOMAS"> F  </i>
   <i type="logical" name="LMODELHF"> F  </i>
   <i name="ENCUT4O">     -1.00000000</i>
   <i type="int" name="EXXOEP">     0</i>
   <i type="int" name="FOURORBIT">     0</i>
   <i name="AEXX">      0.00000000</i>
   <i name="HFALPHA">      0.00000000</i>
   <i name="MCALPHA">      0.00000000</i>
   <i name="ALDAX">      1.00000000</i>
   <i name="AGGAX">      1.00000000</i>
   <i name="ALDAC">      1.00000000</i>
   <i name="AGGAC">      1.00000000</i>
   <i type="int" name="NKREDX">     1</i>
   <i type="int" name="NKREDY">     1</i>
   <i type="int" name="NKREDZ">     1</i>
   <i type="logical" name="SHIFTRED"> F  </i>
   <i type="logical" name="ODDONLY"> F  </i>
   <i type="logical" name="EVENONLY"> F  </i>
   <i type="int" name="LMAXFOCK">     0</i>
   <i type="int" name="NMAXFOCKAE">     0</i>
   <i type="logical" name="LFOCKAEDFT"> F  </i>
   <i name="HFSCREEN">      0.00000000</i>
   <i name="HFSCREENC">      0.00000000</i>
   <i type="int" name="NBANDSGWLOW">     0</i>
  </separator>
  <separator name="vdW DFT" >
   <i type="logical" name="LUSE_VDW"> F  </i>
   <i name="Zab_VDW">     -0.84910000</i>
   <i name="PARAM1">      0.12340000</i>
   <i name="PARAM2">      1.00000000</i>
   <i name="PARAM3">      0.00000000</i>
  </separator>
  <separator name="model GW" >
   <i type="int" name="MODEL_GW">     0</i>
   <i name="MODEL_EPS0">     12.00772552</i>
   <i name="MODEL_ALPHA">      1.00000000</i>
  </separator>
  <separator name="linear response parameters" >
   <i type="logical" name="LEPSILON"> F  </i>
   <i type="logical" name="LRPA"> F  </i>
   <i type="logical" name="LNABLA"> F  </i>
   <i type="logical" name="LVEL"> F  </i>
   <i type="int" name="KINTER">     0</i>
   <i name="CSHIFT">      0.10000000</i>
   <i name="OMEGAMAX">     -1.00000000</i>
   <i name="DEG_THRESHOLD">      0.00200000</i>
  </separator>
  <separator name="orbital magnetization" >
   <i type="logical" name="NUCIND"> F  </i>
   <v name="MAGPOS">      0.00000000      0.00000000      0.00000000</v>
   <i type="logical" name="LNICSALL"> T  </i>
   <i type="logical" name="ORBITALMAG"> F  </i>
   <i type="logical" name="LMAGBLOCH"> F  </i>
   <i type="logical" name="LCHIMAG"> F  </i>
   <i type="logical" name="LGAUGE"> T  </i>
   <i type="int" name="MAGATOM">     0</i>
   <v name="MAGDIPOL">      0.00000000      0.00000000      0.00000000</v>
   <v name="AVECCONST">      0.00000000      0.00000000      0.00000000</v>
  </separator>
  <separator name="response functions" >
   <i type="logical" name="LADDER"> F  </i>
   <i type="logical" name="LFXC"> F  </i>
   <i type="logical" name="LHARTREE"> T  </i>
   <i type="int" name="IBSE">     0</i>
   <i type="logical" name="LTCTE"> F  </i>
   <i type="logical" name="LTETE"> F  </i>
   <i type="logical" name="LTRIPLET"> F  </i>
   <i type="logical" name="LFXCEPS"> F  </i>
   <i type="logical" name="L2ORDER"> F  </i>
   <i type="logical" name="LUSEW"> F  </i>
   <i name="ENCUTGW">     -2.00000000</i>
   <i name="ENCUTGWSOFT">     -2.00000000</i>
   <i name="ENCUTLF">     -1.00000000</i>
   <i type="int" name="LMAXMP2">    -1</i>
   <i name="SCISSOR">      0.00000000</i>
   <i type="int" name="NOMEGA">     0</i>
   <i type="int" name="NOMEGAR">     0</i>
   <i type="int" name="NBANDSGW">    -1</i>
   <i type="int" name="NBANDSO">    -1</i>
   <i type="int" name="NBANDSV">    -1</i>
   <i type="int" name="NELM">     1</i>
   <i type="int" name="DIM">     3</i>
   <i type="int" name="ANTIRES">     0</i>
   <i name="OMEGAMAX">    -30.00000000</i>
   <i name="OMEGATL">   -200.00000000</i>
   <i type="int" name="OMEGAGRID">     0</i>
   <i name="CSHIFT">     -0.10000000</i>
   <i type="logical" name="SELFENERGY"> F  </i>
   <i type="logical" name="LSPECTRAL"> F  </i>
   <i type="logical" name="ODDONLYGW"> F  </i>
   <i type="logical" name="EVENONLYGW"> F  </i>
   <i type="int" name="NKREDLFX">     1</i>
   <i type="int" name="NKREDLFY">     1</i>
   <i type="int" name="NKREDLFZ">     1</i>
   <i type="int" name="MAXMEM">  1800</i>
   <i type="int" name="TELESCOPE">     0</i>
  </separator>
 </parameters>
 <atominfo>
  <atoms>       2 </atoms>
  <types>       1 </types>
  <array name="atoms" >
   <dimension dim="1">ion</dimension>
   <field type="string">element</field>
   <field type="int">atomtype</field>
   <set>
    <rc><c>Si</c><c>   1</c></rc>
    <rc><c>Si</c><c>   1</c></rc>
   </set>
  </array>
  <array name="atomtypes" >
   <dimension dim="1">type</dimension>
   <field type="int">atomspertype</field>
   <field type="string">element</field>
   <field>mass</field>
   <field>valence</field>
   <field type="string">pseudopotential</field>
   <set>
    <rc><c>   2</c><c>Si</c><c>     28.08500000</c><c>      4.00000000</c><c>  PAW Si 02Apr1999                      </c></rc>
   </set>
  </array>
 </atominfo>
 <structure name="initialpos" >
  <crystal>
   <varray name="basis" >
    <v>       0.00000000       2.71500000       2.71500000 </v>
    <v>       2.71500000       0.00000000       2.71500000 </v>
    <v>       2.71500000       2.71500000       0.00000000 </v>
   </varray>
   <i name="volume">     40.02575175 </i>
   <varray name="rec_basis" >
    <v>      -0.18416206       0.18416206       0.18416206 </v>
    <v>       0.18416206      -0.18416206       0.18416206 </v>
    <v>       0.18416206       0.18416206      -0.18416206 </v>
   </varray>
  </crystal>
  <varray name="positions" >
   <v>       0.00000000       0.00000000       0.00000000 </v>
   <v>       0.25000000       0.25000000       0.25000000 </v>
  </varray>
 </structure>
 <calculation>
  <scstep>
   <time name="dav">    0.12    0.12</time>
   <time name="total">    0.13    0.13</time>
   <energy>
    <i name="alphaZ">      2.37286213 </i>
    <i name="ewald">   -228.56352493 </i>
    <i name="hartreedc">    -14.84277009 </i>
    <i name="XCdc">    -17.96561312 </i>
    <i name="pawpsdc">   1064.16681478 </i>
    <i name="pawaedc">  -1029.56818613 </i>
    <i name="eentropy">      0.00596081 </i>
    <i name="bandstr">     10.38642310 </i>
    <i name="atom">    206.85361532 </i>
    <i name="e_fr_energy">     -7.15441813 </i>
    <i name="e_wo_entrp">     -7.16037894 </i>
    <i name="e_0_energy">     -7.15640507 </i>
   </energy>
  </scstep>
  <scstep>
   <time name="dav">    0.10    0.10</time>
   <time name="total">    0.10    0.10</time>
   <energy>
    <i name="e_fr_energy">     -7.54132829 </i>
    <i name="e_wo_entrp">     -7.54788105 </i>
    <i name="e_0_energy">     -7.54351254 </i>
   </energy>
  </scstep>
  <scstep>
   <time name="dav">    0.16    0.16</time>
   <time name="total">    0.16    0.17</time>
   <energy>
    <i name="e_fr_energy">     -7.54300771 </i>
    <i name="e_wo_entrp">     -7.54956634 </i>
    <i name="e_0_energy">     -7.54519392 </i>
   </energy>
  </scstep>
  <scstep>
   <time name="dav">    0.11    0.11</time>
   <time name="total">    0.11    0.12</time>
   <energy>
    <i name="alphaZ">      2.37286213 </i>
    <i name="ewald">   -228.56352493 </i>
    <i name="hartreedc">    -14.84277009 </i>
    <i name="XCdc">    -17.96561312 </i>
    <i name="pawpsdc">   1064.16681478 </i>
    <i name="pawaedc">  -1029.56818613 </i>
    <i name="eentropy">      0.00655864 </i>
    <i name="bandstr">      9.99723547 </i>
    <i name="atom">    206.85361532 </i>
    <i name="e_fr_energy">     -7.54300794 </i>
    <i name="e_wo_entrp">     -7.54956657 </i>
    <i name="e_0_energy">     -7.54519415 </i>
   </energy>
  </scstep>
  <structure>
   <crystal>
    <varray name="basis" >
     <v>       0.00000000       2.71500000       2.71500000 </v>
     <v>       2.71500000       0.00000000       2.71500000 </v>
     <v>       2.71500000       2.71500000       0.00000000 </v>
    </varray>
    <i name="volume">     40.02575175 </i>
    <varray name="rec_basis" >
     <v>      -0.18416206       0.18416206       0.18416206 </v>
     <v>       0.18416206      -0.18416206       0.18416206 </v>
     <v>       0.18416206       0.18416206      -0.18416206 </v>
    </varray>
   </crystal>
   <varray name="positions" >
    <v>       0.00000000       0.00000000       0.00000000 </v>
    <v>       0.25000000       0.25000000       0.25000000 </v>
   </varray>
  </structure>
  <varray name="forces" >
   <v>      -0.00000234      -0.00000773      -0.67452632 </v>
   <v>       0.00000234       0.00000773       0.67452632 </v>
  </varray>
  <varray name="stress" >
   <v>     132.22638783      68.04167795      -0.00110604 </v>
   <v>      68.04167827     118.86742840      -0.00136885 </v>
   <v>      -0.00110590      -0.00136873     219.45818069 </v>
  </varray>
  <energy>
   <i name="e_fr_energy">     -7.54300794 </i>
   <i name="e_wo_entrp">     -7.54519415 </i>
   <i name="e_0_energy">      0.00655864 </i>
  </energy>
  <time name="totalsc">    0.56    0.61</time>
  <eigenvalues>
   <array>
    <dimension dim="1">band</dimension>
    <dimension dim="2">kpoint</dimension>
    <dimension dim="3">spin</dimension>
    <field>eigene</field>
    <field>occ</field>
    <set>
     <set comment="spin 1">
      <set comment="kpoint 1">
       <r>   -1.8713    1.0000 </r>
       <r>   -1.8713    1.0000 </r>
       <r>    1.8963    1.0000 </r>
       <r>    1.8963    1.0000 </r>
       <r>    9.9850   -0.0000 </r>
       <r>    9.9851   -0.0000 </r>
       <r>   10.7183   -0.0000 </r>
       <r>   10.7183   -0.0000 </r>
       <r>   16.3169    0.0000 </r>
       <r>   16.3169    0.0000 </r>
       <r>   18.7648    0.0000 </r>
       <r>   18.7648    0.0000 </r>
       <r>   22.1202    0.0000 </r>
       <r>   22.1202    0.0000 </r>
       <r>   24.2144    0.0000 </r>
       <r>   24.2243    0.0000 </r>
      </set>
      <set comment="kpoint 2">
       <r>   -2.2098    1.0000 </r>
       <r>   -1.5467    1.0000 </r>
       <r>    1.7302    1.0000 </r>
       <r>    2.1504    1.0000 </r>
       <r>    9.7732   -0.0000 </r>
       <r>    9.8084   -0.0000 </r>
       <r>   10.4844   -0.0000 </r>
       <r>   11.4381    0.0000 </r>
       <r>   15.6548    0.0000 </r>
       <r>   16.6942    0.0000 </r>
       <r>   18.3618    0.0000 </r>
       <r>   19.3918    0.0000 </r>
       <r>   21.4862    0.0000 </r>
       <r>   22.5028    0.0000 </r>
       <r>   23.7342    0.0000 </r>
       <r>   23.8699    0.0000 </r>
      </set>
      <set comment="kpoint 3">
       <r>   -2.6031    1.0000 </r>
       <r>   -1.1837    1.0000 </r>
       <r>    1.6936    1.0000 </r>
       <r>    2.4434    1.0000 </r>
       <r>    9.4489   -0.0000 </r>
       <r>    9.6041   -0.0000 </r>
       <r>   10.2972   -0.0000 </r>
       <r>   12.4437    0.0000 </r>
       <r>   14.9259    0.0000 </r>
       <r>   16.5005    0.0000 </r>
       <r>   18.5480    0.0000 </r>
       <r>   19.9211    0.0000 </r>
       <r>   20.8100    0.0000 </r>
       <r>   22.3634    0.0000 </r>
       <r>   22.5649    0.0000 </r>
       <r>   24.2577    0.0000 </r>
      </set>
      <set comment="kpoint 4">
       <r>   -3.0288    1.0000 </r>
       <r>   -0.7831    1.0000 </r>
       <r>    1.7693    1.0000 </r>
       <r>    2.7671    1.0000 </r>
       <r>    9.1121   -0.0000 </r>
       <r>    9.4832   -0.0000 </r>
       <r>   10.1518   -0.0000 </r>
       <r>   13.5065    0.0000 </r>
       <r>   14.1969    0.0000 </r>
       <r>   15.9529    0.0000 </r>
       <r>   19.0528    0.0000 </r>
       <r>   20.0911    0.0000 </r>
       <r>   20.1666    0.0000 </r>
       <r>   21.3866    0.0000 </r>
       <r>   22.2677    0.0000 </r>
       <r>   24.3885    0.0000 </r>
      </set>
      <set comment="kpoint 5">
       <r>   -3.4647    1.0000 </r>
       <r>   -0.3446    1.0000 </r>
       <r>    1.9381    1.0000 </r>
       <r>    3.1140    1.0000 </r>
       <r>    8.8192   -0.0000 </r>
       <r>    9.4212   -0.0000 </r>
       <r>   10.0425   -0.0000 </r>
       <r>   13.4894    0.0000 </r>
       <r>   14.5857    0.0000 </r>
       <r>   15.3472    0.0000 </r>
       <r>   19.3405    0.0000 </r>
       <r>   19.6513    0.0000 </r>
       <r>   19.8791    0.0000 </r>
       <r>   20.4435    0.0000 </r>
       <r>   22.4426    0.0000 </r>
       <r>   23.8598    0.0000 </r>
      </set>
      <set comment="kpoint 6">
       <r>   -3.8928    1.0000 </r>
       <r>    0.1315    1.0000 </r>
       <r>    2.1833    1.0000 </r>
       <r>    3.4736    1.0000 </r>
       <r>    8.5733   -0.0000 </r>
       <r>    9.4257   -0.0000 </r>
       <r>    9.9606   -0.0000 </r>
       <r>   12.8088    0.0000 </r>
       <r>   14.7628    0.0000 </r>
       <r>   15.6133    0.0000 </r>
       <r>   18.7212    0.0000 </r>
       <r>   18.9659    0.0000 </r>
       <r>   19.5518    0.0000 </r>
       <r>   20.6626    0.0000 </r>
       <r>   22.2720    0.0000 </r>
       <r>   23.6609    0.0000 </r>
      </set>
      <set comment="kpoint 7">
       <r>   -4.3005    1.0000 </r>
       <r>    0.6445    1.0000 </r>
       <r>    2.4909    1.0000 </r>
       <r>    3.8335    1.0000 </r>
       <r>    8.3735   -0.0000 </r>
       <r>    9.4971   -0.0000 </r>
       <r>    9.8918   -0.0000 </r>
       <r>   12.1538    0.0000 </r>
       <r>   14.2226    0.0000 </r>
       <r>   16.4200    0.0000 </r>
       <r>   17.6270    0.0000 </r>
       <r>   18.4397    0.0000 </r>
       <r>   19.3936    0.0000 </r>
       <r>   21.2274    0.0000 </r>
       <r>   21.4940    0.0000 </r>
       <r>   24.1172    0.0000 </r>
      </set>
      <set comment="kpoint 8">
       <r>   -4.6786    1.0000 </r>
       <r>    1.1940    1.0000 </r>
       <r>    2.8509    1.0000 </r>
       <r>    4.1827    1.0000 </r>
       <r>    8.2238   -0.0000 </r>
       <r>    9.6001   -0.0000 </r>
       <r>    9.8705   -0.0000 </r>
       <r>   11.5367    0.0000 </r>
       <r>   13.7544    0.0000 </r>
       <r>   16.5274    0.0000 </r>
       <r>   16.7298    0.0000 </r>
       <r>   17.9965    0.0000 </r>
       <r>   19.6092    0.0000 </r>
       <r>   20.7655    0.0000 </r>
       <r>   21.6321    0.0000 </r>
       <r>   24.0176    0.0000 </r>
      </set>
      <set comment="kpoint 9">
       <r>   -5.0210    1.0000 </r>
       <r>    1.7788    1.0000 </r>
       <r>    3.2525    1.0000 </r>
       <r>    4.5107    1.0000 </r>
       <r>    8.1243   -0.0000 </r>
       <r>    9.5815   -0.0000 </r>
       <r>   10.0310   -0.0000 </r>
       <r>   10.9571   -0.0000 </r>
       <r>   13.3542    0.0000 </r>
       <r>   15.5010    0.0000 </r>
       <r>   16.5294    0.0000 </r>
       <r>   17.6231    0.0000 </r>
       <r>   19.3790    0.0000 </r>
       <r>   21.0740    0.0000 </r>
       <r>   21.4628    0.0000 </r>
       <r>   23.9600    0.0000 </r>
      </set>
      <set comment="kpoint 10">
       <r>   -5.3237    1.0000 </r>
       <r>    2.3964    1.0000 </r>
       <r>    3.6852    1.0000 </r>
       <r>    4.8097    1.0000 </r>
       <r>    8.0724   -0.0000 </r>
       <r>    9.4510   -0.0000 </r>
       <r>   10.3287   -0.0000 </r>
       <r>   10.4105   -0.0000 </r>
       <r>   12.9892    0.0000 </r>
       <r>   14.6116    0.0000 </r>
       <r>   16.0755    0.0000 </r>
       <r>   17.3177    0.0000 </r>
       <r>   18.7108    0.0000 </r>
       <r>   20.7835    0.0000 </r>
       <r>   22.1806    0.0000 </r>
       <r>   24.3888    0.0000 </r>
      </set>
      <set comment="kpoint 11">
       <r>   -5.5836    1.0000 </r>
       <r>    3.0423    1.0000 </r>
       <r>    4.1361    1.0000 </r>
       <r>    5.0763    1.0000 </r>
       <r>    8.0640   -0.0000 </r>
       <r>    9.2680   -0.0000 </r>
       <r>    9.9001   -0.0000 </r>
       <r>   10.6252   -0.0000 </r>
       <r>   12.6046    0.0000 </r>
       <r>   13.9826    0.0000 </r>
       <r>   15.5116    0.0000 </r>
       <r>   17.0854    0.0000 </r>
       <r>   18.1163    0.0000 </r>
       <r>   19.9479    0.0000 </r>
       <r>   23.4684    0.0000 </r>
       <r>   24.1584    0.0000 </r>
      </set>
      <set comment="kpoint 12">
       <r>   -5.7985    1.0000 </r>
       <r>    3.7099    1.0000 </r>
       <r>    4.5904    1.0000 </r>
       <r>    5.3098    1.0001 </r>
       <r>    8.0964   -0.0000 </r>
       <r>    9.0576   -0.0000 </r>
       <r>    9.4339   -0.0000 </r>
       <r>   10.6794   -0.0000 </r>
       <r>   12.3633    0.0000 </r>
       <r>   13.6840    0.0000 </r>
       <r>   14.9142    0.0000 </r>
       <r>   16.9357    0.0000 </r>
       <r>   17.6553    0.0000 </r>
       <r>   19.1183    0.0000 </r>
       <r>   23.2204    0.0000 </r>
       <r>   24.8246    0.0000 </r>
      </set>
      <set comment="kpoint 13">
       <r>   -5.9669    1.0000 </r>
       <r>    4.3845    1.0000 </r>
       <r>    5.0255    1.0000 </r>
       <r>    5.5050    1.0057 </r>
       <r>    8.1575   -0.0000 </r>
       <r>    8.8404   -0.0000 </r>
       <r>    9.0155   -0.0000 </r>
       <r>   10.2597   -0.0000 </r>
       <r>   12.5696    0.0000 </r>
       <r>   13.5848    0.0000 </r>
       <r>   14.3486    0.0000 </r>
       <r>   16.8668    0.0000 </r>
       <r>   17.3186    0.0000 </r>
       <r>   18.3353    0.0000 </r>
       <r>   22.3058    0.0000 </r>
       <r>   26.1807    0.0000 </r>
      </set>
      <set comment="kpoint 14">
       <r>   -6.0879    1.0000 </r>
       <r>    5.0303    1.0000 </r>
       <r>    5.4083    1.0008 </r>
       <r>    5.6570    1.0337 </r>
       <r>    8.2303   -0.0000 </r>
       <r>    8.6300   -0.0000 </r>
       <r>    8.6616   -0.0000 </r>
       <r>    9.6507   -0.0000 </r>
       <r>   13.0094    0.0000 </r>
       <r>   13.5715    0.0000 </r>
       <r>   13.8792    0.0000 </r>
       <r>   16.8645    0.0000 </r>
       <r>   17.0921    0.0000 </r>
       <r>   17.6435    0.0000 </r>
       <r>   21.5478    0.0000 </r>
       <r>   27.4747    0.0000 </r>
      </set>
      <set comment="kpoint 15">
       <r>   -6.1608    1.0000 </r>
       <r>    5.5619    1.0138 </r>
       <r>    5.6852    1.0354 </r>
       <r>    5.7554    1.0016 </r>
       <r>    8.2907   -0.0000 </r>
       <r>    8.4094   -0.0000 </r>
       <r>    8.4282   -0.0000 </r>
       <r>    9.1634   -0.0000 </r>
       <r>   13.4164    0.0000 </r>
       <r>   13.5659    0.0000 </r>
       <r>   13.5828    0.0000 </r>
       <r>   16.8969    0.0000 </r>
       <r>   16.9598    0.0000 </r>
       <r>   17.1224    0.0000 </r>
       <r>   21.0366    0.0000 </r>
       <r>   28.5034    0.0000 </r>
      </set>
      <set comment="kpoint 16">
       <r>   -6.1852    1.0000 </r>
       <r>    5.7886    0.9539 </r>
       <r>    5.7886    0.9539 </r>
       <r>    5.7886    0.9539 </r>
       <r>    8.3142   -0.0000 </r>
       <r>    8.3142   -0.0000 </r>
       <r>    8.3142   -0.0000 </r>
       <r>    8.9894   -0.0000 </r>
       <r>   13.4552    0.0000 </r>
       <r>   13.5897    0.0000 </r>
       <r>   13.5897    0.0000 </r>
       <r>   16.9136    0.0000 </r>
       <r>   16.9137    0.0000 </r>
       <r>   16.9137    0.0000 </r>
       <r>   20.8535    0.0000 </r>
       <r>   28.8991    0.0000 </r>
      </set>
      <set comment="kpoint 17">
       <r>   -6.1628    1.0000 </r>
       <r>    5.6370    1.0302 </r>
       <r>    5.6949    1.0345 </r>
       <r>    5.6950    1.0345 </r>
       <r>    8.2565   -0.0000 </r>
       <r>    8.4366   -0.0000 </r>
       <r>    8.4366   -0.0000 </r>
       <r>    9.1384   -0.0000 </r>
       <r>   13.3999    0.0000 </r>
       <r>   13.5570    0.0000 </r>
       <r>   13.6144    0.0000 </r>
       <r>   16.9561    0.0000 </r>
       <r>   16.9561    0.0000 </r>
       <r>   17.0456    0.0000 </r>
       <r>   21.0238    0.0000 </r>
       <r>   28.5624    0.0000 </r>
      </set>
      <set comment="kpoint 18">
       <r>   -6.0958    1.0000 </r>
       <r>    5.2459    1.0000 </r>
       <r>    5.4542    1.0022 </r>
       <r>    5.4542    1.0022 </r>
       <r>    8.0967   -0.0000 </r>
       <r>    8.7587   -0.0000 </r>
       <r>    8.7587   -0.0000 </r>
       <r>    9.5025   -0.0000 </r>
       <r>   12.9472    0.0000 </r>
       <r>   13.6887    0.0000 </r>
       <r>   13.8479    0.0000 </r>
       <r>   17.0748    0.0000 </r>
       <r>   17.0748    0.0000 </r>
       <r>   17.3461    0.0000 </r>
       <r>   21.5180    0.0000 </r>
       <r>   27.7701    0.0000 </r>
      </set>
      <set comment="kpoint 19">
       <r>   -5.9843    1.0000 </r>
       <r>    4.7242    1.0000 </r>
       <r>    5.1421    1.0000 </r>
       <r>    5.1421    1.0000 </r>
       <r>    7.8674   -0.0000 </r>
       <r>    9.2053   -0.0000 </r>
       <r>    9.2053   -0.0000 </r>
       <r>    9.9078   -0.0000 </r>
       <r>   12.4503    0.0000 </r>
       <r>   13.8126    0.0000 </r>
       <r>   14.2941    0.0000 </r>
       <r>   17.2717    0.0000 </r>
       <r>   17.2717    0.0000 </r>
       <r>   17.6990    0.0000 </r>
       <r>   22.2863    0.0000 </r>
       <r>   26.8313    0.0000 </r>
      </set>
      <set comment="kpoint 20">
       <r>   -5.8288    1.0000 </r>
       <r>    4.1399    1.0000 </r>
       <r>    4.8087    1.0000 </r>
       <r>    4.8087    1.0000 </r>
       <r>    7.6028   -0.0000 </r>
       <r>    9.7256   -0.0000 </r>
       <r>    9.7256   -0.0000 </r>
       <r>   10.0997   -0.0000 </r>
       <r>   12.2160    0.0000 </r>
       <r>   13.9858    0.0000 </r>
       <r>   14.8588    0.0000 </r>
       <r>   17.5454    0.0000 </r>
       <r>   17.5454    0.0000 </r>
       <r>   18.0686    0.0000 </r>
       <r>   23.2561    0.0000 </r>
       <r>   25.8581    0.0000 </r>
      </set>
      <set comment="kpoint 21">
       <r>   -5.6296    1.0000 </r>
       <r>    3.5233    1.0000 </r>
       <r>    4.4785    1.0000 </r>
       <r>    4.4785    1.0000 </r>
       <r>    7.3296   -0.0000 </r>
       <r>    9.8667   -0.0000 </r>
       <r>   10.2900   -0.0000 </r>
       <r>   10.2900   -0.0000 </r>
       <r>   12.4671    0.0000 </r>
       <r>   14.2034    0.0000 </r>
       <r>   15.5104    0.0000 </r>
       <r>   17.8865    0.0000 </r>
       <r>   17.8865    0.0000 </r>
       <r>   18.4682    0.0000 </r>
       <r>   24.3595    0.0000 </r>
       <r>   24.8817    0.0000 </r>
      </set>
      <set comment="kpoint 22">
       <r>   -5.3873    1.0000 </r>
       <r>    2.8925    1.0000 </r>
       <r>    4.1696    1.0000 </r>
       <r>    4.1696    1.0000 </r>
       <r>    7.0681   -0.0000 </r>
       <r>    9.3794   -0.0000 </r>
       <r>   10.8856   -0.0000 </r>
       <r>   10.8856   -0.0000 </r>
       <r>   13.0355    0.0000 </r>
       <r>   14.4750    0.0000 </r>
       <r>   16.2216    0.0000 </r>
       <r>   18.2922    0.0000 </r>
       <r>   18.2922    0.0000 </r>
       <r>   18.8998    0.0000 </r>
       <r>   23.9513    0.0000 </r>
       <r>   23.9520    0.0000 </r>
      </set>
      <set comment="kpoint 23">
       <r>   -5.1025    1.0000 </r>
       <r>    2.2545    1.0000 </r>
       <r>    3.8880    1.0000 </r>
       <r>    3.8880    1.0000 </r>
       <r>    6.8318   -0.0000 </r>
       <r>    8.8350   -0.0000 </r>
       <r>   11.5070    0.0000 </r>
       <r>   11.5070    0.0000 </r>
       <r>   13.7332    0.0000 </r>
       <r>   14.7957    0.0000 </r>
       <r>   16.9673    0.0000 </r>
       <r>   18.7369    0.0000 </r>
       <r>   18.7369    0.0000 </r>
       <r>   19.3868    0.0000 </r>
       <r>   23.1035    0.0000 </r>
       <r>   23.1039    0.0000 </r>
      </set>
      <set comment="kpoint 24">
       <r>   -4.7766    1.0000 </r>
       <r>    1.6141    1.0000 </r>
       <r>    3.6379    1.0000 </r>
       <r>    3.6379    1.0000 </r>
       <r>    6.6282   -0.0000 </r>
       <r>    8.3097   -0.0000 </r>
       <r>   12.1382    0.0000 </r>
       <r>   12.1382    0.0000 </r>
       <r>   14.4757    0.0000 </r>
       <r>   15.1562    0.0000 </r>
       <r>   17.7122    0.0000 </r>
       <r>   19.1374    0.0000 </r>
       <r>   19.1374    0.0000 </r>
       <r>   19.9372    0.0000 </r>
       <r>   22.4032    0.0000 </r>
       <r>   22.4036    0.0000 </r>
      </set>
      <set comment="kpoint 25">
       <r>   -4.4106    1.0000 </r>
       <r>    0.9758    1.0000 </r>
       <r>    3.4229    1.0000 </r>
       <r>    3.4229    1.0000 </r>
       <r>    6.4647   -0.0005 </r>
       <r>    7.8330   -0.0000 </r>
       <r>   12.7834    0.0000 </r>
       <r>   12.7835    0.0000 </r>
       <r>   15.2315    0.0000 </r>
       <r>   15.5741    0.0000 </r>
       <r>   18.4081    0.0000 </r>
       <r>   19.3184    0.0000 </r>
       <r>   19.3184    0.0000 </r>
       <r>   20.5602    0.0000 </r>
       <r>   22.0384    0.0000 </r>
       <r>   22.0396    0.0000 </r>
      </set>
      <set comment="kpoint 26">
       <r>   -4.0055    1.0000 </r>
       <r>    0.3437    1.0000 </r>
       <r>    3.2441    1.0000 </r>
       <r>    3.2441    1.0000 </r>
       <r>    6.3477   -0.0055 </r>
       <r>    7.4158   -0.0000 </r>
       <r>   13.4392    0.0000 </r>
       <r>   13.4393    0.0000 </r>
       <r>   15.9809    0.0000 </r>
       <r>   16.0405    0.0000 </r>
       <r>   18.9766    0.0000 </r>
       <r>   19.0571    0.0000 </r>
       <r>   19.0571    0.0000 </r>
       <r>   21.2595    0.0000 </r>
       <r>   21.4905    0.0000 </r>
       <r>   22.2083    0.0000 </r>
      </set>
      <set comment="kpoint 27">
       <r>   -3.5637    1.0000 </r>
       <r>   -0.2778    1.0000 </r>
       <r>    3.1046    1.0000 </r>
       <r>    3.1047    1.0000 </r>
       <r>    6.2795   -0.0156 </r>
       <r>    7.0642   -0.0000 </r>
       <r>   14.1116    0.0000 </r>
       <r>   14.1117    0.0000 </r>
       <r>   16.5584    0.0000 </r>
       <r>   16.7133    0.0000 </r>
       <r>   18.5186    0.0000 </r>
       <r>   18.5186    0.0000 </r>
       <r>   19.3107    0.0000 </r>
       <r>   20.6569    0.0000 </r>
       <r>   22.0340    0.0000 </r>
       <r>   22.8058    0.0000 </r>
      </set>
      <set comment="kpoint 28">
       <r>   -3.0871    1.0000 </r>
       <r>   -0.8857    1.0000 </r>
       <r>    3.0041    1.0000 </r>
       <r>    3.0041    1.0000 </r>
       <r>    6.2625   -0.0192 </r>
       <r>    6.7767   -0.0000 </r>
       <r>   14.7733    0.0000 </r>
       <r>   14.7733    0.0000 </r>
       <r>   17.1204    0.0000 </r>
       <r>   17.4084    0.0000 </r>
       <r>   17.8508    0.0000 </r>
       <r>   17.8508    0.0000 </r>
       <r>   19.3354    0.0000 </r>
       <r>   19.8630    0.0000 </r>
       <r>   22.8647    0.0000 </r>
       <r>   23.6250    0.0000 </r>
      </set>
      <set comment="kpoint 29">
       <r>   -2.5779    1.0000 </r>
       <r>   -1.4738    1.0000 </r>
       <r>    2.9441    1.0000 </r>
       <r>    2.9441    1.0000 </r>
       <r>    6.3023   -0.0114 </r>
       <r>    6.5566   -0.0000 </r>
       <r>   15.4106    0.0000 </r>
       <r>   15.4106    0.0000 </r>
       <r>   17.2041    0.0000 </r>
       <r>   17.2041    0.0000 </r>
       <r>   17.7558    0.0000 </r>
       <r>   18.0545    0.0000 </r>
       <r>   19.0782    0.0000 </r>
       <r>   19.1149    0.0000 </r>
       <r>   23.7502    0.0000 </r>
       <r>   24.5660    0.0000 </r>
      </set>
      <set comment="kpoint 30">
       <r>   -2.0391    1.0000 </r>
       <r>   -2.0391    1.0000 </r>
       <r>    2.9240    1.0000 </r>
       <r>    2.9240    1.0000 </r>
       <r>    6.3992   -0.0020 </r>
       <r>    6.3993   -0.0020 </r>
       <r>   15.7756    0.0000 </r>
       <r>   15.7756    0.0000 </r>
       <r>   16.8302    0.0000 </r>
       <r>   16.8302    0.0000 </r>
       <r>   18.4122    0.0000 </r>
       <r>   18.4122    0.0000 </r>
       <r>   18.6263    0.0000 </r>
       <r>   18.6263    0.0000 </r>
       <r>   24.5744    0.0000 </r>
       <r>   24.5755    0.0000 </r>
      </set>
     </set>
    </set>
   </array>
  </eigenvalues>
  <separator name="orbital magnetization" >
   <v name="MAGDIPOLOUT">      0.00000000      0.00000000      0.00000000</v>
  </separator>
  <dos>
   <i name="efermi">      5.92525900 </i>
   <total>
    <array>
     <dimension dim="1">gridpoints</dimension>
     <dimension dim="2">spin</dimension>
     <field>energy</field>
     <field>total</field>
     <field>integrated</field>
     <set>
      <set comment="spin 1">
       <r>    -8.1852     0.0000     0.0000 </r>
       <r>    -8.0549     0.0000     0.0000 </r>
       <r>    -7.9246     0.0000     0.0000 </r>
       <r>    -7.7943    -0.0000    -0.0000 </r>
       <r>    -7.6641    -0.0000    -0.0000 </r>
       <r>    -7.5338    -0.0000    -0.0000 </r>
       <r>    -7.4035    -0.0000    -0.0000 </r>
       <r>    -7.2732    -0.0000    -0.0000 </r>
       <r>    -7.1429    -0.0000    -0.0000 </r>
       <r>    -7.0127    -0.0000    -0.0000 </r>
       <r>    -6.8824    -0.0000    -0.0000 </r>
       <r>    -6.7521    -0.0003    -0.0000 </r>
       <r>    -6.6218    -0.0053    -0.0007 </r>
       <r>    -6.4915    -0.0383    -0.0057 </r>
       <r>    -6.3613    -0.0306    -0.0097 </r>
       <r>    -6.2310     0.4658     0.0510 </r>
       <r>    -6.1007     1.3062     0.2212 </r>
       <r>    -5.9704     1.3554     0.3978 </r>
       <r>    -5.8401     0.9107     0.5164 </r>
       <r>    -5.7098     0.6798     0.6050 </r>
       <r>    -5.5796     0.6017     0.6834 </r>
       <r>    -5.4493     0.5303     0.7525 </r>
       <r>    -5.3190     0.5147     0.8195 </r>
       <r>    -5.1887     0.4393     0.8767 </r>
       <r>    -5.0584     0.4548     0.9360 </r>
       <r>    -4.9282     0.4160     0.9902 </r>
       <r>    -4.7979     0.3527     1.0361 </r>
       <r>    -4.6676     0.4454     1.0942 </r>
       <r>    -4.5373     0.3155     1.1353 </r>
       <r>    -4.4070     0.3253     1.1777 </r>
       <r>    -4.2768     0.4344     1.2343 </r>
       <r>    -4.1465     0.2590     1.2680 </r>
       <r>    -4.0162     0.2781     1.3042 </r>
       <r>    -3.8859     0.4419     1.3618 </r>
       <r>    -3.7556     0.2629     1.3960 </r>
       <r>    -3.6254     0.1868     1.4204 </r>
       <r>    -3.4951     0.4297     1.4764 </r>
       <r>    -3.3648     0.3573     1.5229 </r>
       <r>    -3.2345     0.1084     1.5370 </r>
       <r>    -3.1042     0.3031     1.5765 </r>
       <r>    -2.9739     0.4911     1.6405 </r>
       <r>    -2.8437     0.1915     1.6654 </r>
       <r>    -2.7134     0.1047     1.6791 </r>
       <r>    -2.5831     0.4441     1.7369 </r>
       <r>    -2.4528     0.4121     1.7906 </r>
       <r>    -2.3225     0.1205     1.8063 </r>
       <r>    -2.1923     0.2498     1.8389 </r>
       <r>    -2.0620     0.5928     1.9161 </r>
       <r>    -1.9317     0.8039     2.0208 </r>
       <r>    -1.8014     0.6456     2.1050 </r>
       <r>    -1.6711     0.2802     2.1415 </r>
       <r>    -1.5409     0.3402     2.1858 </r>
       <r>    -1.4106     0.4555     2.2451 </r>
       <r>    -1.2803     0.2600     2.2790 </r>
       <r>    -1.1500     0.2244     2.3082 </r>
       <r>    -1.0197     0.2000     2.3343 </r>
       <r>    -0.8895     0.3129     2.3751 </r>
       <r>    -0.7592     0.4637     2.4355 </r>
       <r>    -0.6289     0.2244     2.4647 </r>
       <r>    -0.4986     0.0283     2.4684 </r>
       <r>    -0.3683     0.2749     2.5042 </r>
       <r>    -0.2380     0.4997     2.5693 </r>
       <r>    -0.1078     0.2348     2.5999 </r>
       <r>     0.0225     0.0643     2.6083 </r>
       <r>     0.1528     0.2304     2.6383 </r>
       <r>     0.2831     0.3308     2.6814 </r>
       <r>     0.4134     0.2823     2.7182 </r>
       <r>     0.5436     0.1956     2.7436 </r>
       <r>     0.6739     0.2363     2.7744 </r>
       <r>     0.8042     0.1858     2.7986 </r>
       <r>     0.9345     0.1764     2.8216 </r>
       <r>     1.0648     0.2965     2.8602 </r>
       <r>     1.1950     0.3201     2.9019 </r>
       <r>     1.3253     0.1911     2.9268 </r>
       <r>     1.4556     0.0108     2.9283 </r>
       <r>     1.5859     0.2597     2.9621 </r>
       <r>     1.7162     0.9979     3.0921 </r>
       <r>     1.8464     1.4366     3.2793 </r>
       <r>     1.9767     1.1016     3.4228 </r>
       <r>     2.1070     0.6493     3.5074 </r>
       <r>     2.2373     0.7095     3.5998 </r>
       <r>     2.3676     0.8223     3.7069 </r>
       <r>     2.4979     0.7778     3.8083 </r>
       <r>     2.6281     0.3750     3.8571 </r>
       <r>     2.7584     0.3582     3.9038 </r>
       <r>     2.8887     1.4504     4.0928 </r>
       <r>     3.0190     2.4411     4.4108 </r>
       <r>     3.1493     2.1393     4.6895 </r>
       <r>     3.2795     1.3976     4.8716 </r>
       <r>     3.4098     1.0832     5.0127 </r>
       <r>     3.5401     1.1847     5.1670 </r>
       <r>     3.6704     1.3081     5.3375 </r>
       <r>     3.8007     1.2166     5.4960 </r>
       <r>     3.9309     0.8954     5.6126 </r>
       <r>     4.0612     0.7924     5.7158 </r>
       <r>     4.1915     1.2161     5.8743 </r>
       <r>     4.3218     1.0516     6.0113 </r>
       <r>     4.4521     0.8960     6.1280 </r>
       <r>     4.5823     1.0579     6.2658 </r>
       <r>     4.7126     0.9493     6.3895 </r>
       <r>     4.8429     0.9986     6.5196 </r>
       <r>     4.9732     0.9506     6.6435 </r>
       <r>     5.1035     1.1611     6.7947 </r>
       <r>     5.2338     1.1939     6.9503 </r>
       <r>     5.3640     1.0316     7.0847 </r>
       <r>     5.4943     1.2901     7.2527 </r>
       <r>     5.6246     1.8110     7.4887 </r>
       <r>     5.7549     2.2593     7.7830 </r>
       <r>     5.8852     1.4964     7.9780 </r>
       <r>     6.0154     0.2147     8.0059 </r>
       <r>     6.1457     0.0011     8.0061 </r>
       <r>     6.2760     0.8403     8.1156 </r>
       <r>     6.4063     1.5766     8.3210 </r>
       <r>     6.5366     1.2813     8.4879 </r>
       <r>     6.6668     0.7563     8.5864 </r>
       <r>     6.7971     0.5916     8.6635 </r>
       <r>     6.9274     0.5129     8.7303 </r>
       <r>     7.0577     0.5101     8.7968 </r>
       <r>     7.1880     0.4684     8.8578 </r>
       <r>     7.3182     0.3900     8.9086 </r>
       <r>     7.4485     0.4848     8.9718 </r>
       <r>     7.5788     0.4008     9.0240 </r>
       <r>     7.7091     0.3020     9.0633 </r>
       <r>     7.8394     0.3945     9.1147 </r>
       <r>     7.9697     0.6692     9.2019 </r>
       <r>     8.0999     1.4742     9.3940 </r>
       <r>     8.2302     2.5452     9.7256 </r>
       <r>     8.3605     3.0211    10.1192 </r>
       <r>     8.4908     2.2798    10.4162 </r>
       <r>     8.6211     1.2779    10.5827 </r>
       <r>     8.7513     1.2944    10.7513 </r>
       <r>     8.8816     1.4319    10.9378 </r>
       <r>     9.0119     1.3060    11.1080 </r>
       <r>     9.1422     1.5834    11.3143 </r>
       <r>     9.2725     1.6605    11.5306 </r>
       <r>     9.4027     1.9824    11.7889 </r>
       <r>     9.5330     2.6463    12.1336 </r>
       <r>     9.6633     2.2736    12.4298 </r>
       <r>     9.7936     2.0022    12.6907 </r>
       <r>     9.9239     2.4993    13.0163 </r>
       <r>    10.0542     2.3889    13.3275 </r>
       <r>    10.1844     1.6573    13.5434 </r>
       <r>    10.3147     1.5629    13.7470 </r>
       <r>    10.4450     1.3251    13.9197 </r>
       <r>    10.5753     0.8340    14.0283 </r>
       <r>    10.7056     0.9858    14.1568 </r>
       <r>    10.8358     1.1187    14.3025 </r>
       <r>    10.9661     0.8920    14.4187 </r>
       <r>    11.0964     0.3749    14.4676 </r>
       <r>    11.2267    -0.0306    14.4636 </r>
       <r>    11.3570     0.1440    14.4823 </r>
       <r>    11.4872     0.8180    14.5889 </r>
       <r>    11.6175     0.9127    14.7078 </r>
       <r>    11.7478     0.2460    14.7399 </r>
       <r>    11.8781    -0.0890    14.7283 </r>
       <r>    12.0084     0.0893    14.7399 </r>
       <r>    12.1386     0.7299    14.8350 </r>
       <r>    12.2689     1.0429    14.9709 </r>
       <r>    12.3992     1.0161    15.1032 </r>
       <r>    12.5295     1.1851    15.2576 </r>
       <r>    12.6598     0.9761    15.3848 </r>
       <r>    12.7901     0.8892    15.5006 </r>
       <r>    12.9203     1.1277    15.6476 </r>
       <r>    13.0506     1.1055    15.7916 </r>
       <r>    13.1809     0.4571    15.8511 </r>
       <r>    13.3112     0.3899    15.9019 </r>
       <r>    13.4415     1.9404    16.1547 </r>
       <r>    13.5717     3.4859    16.6089 </r>
       <r>    13.7020     3.2058    17.0265 </r>
       <r>    13.8323     1.9615    17.2821 </r>
       <r>    13.9626     1.2433    17.4441 </r>
       <r>    14.0929     1.1860    17.5986 </r>
       <r>    14.2231     1.4437    17.7866 </r>
       <r>    14.3534     1.2909    17.9548 </r>
       <r>    14.4837     0.9684    18.0810 </r>
       <r>    14.6140     0.9495    18.2047 </r>
       <r>    14.7443     1.2708    18.3703 </r>
       <r>    14.8745     1.5989    18.5786 </r>
       <r>    15.0048     1.0456    18.7148 </r>
       <r>    15.1351     0.4327    18.7711 </r>
       <r>    15.2654     0.5645    18.8447 </r>
       <r>    15.3957     1.0930    18.9871 </r>
       <r>    15.5260     1.6610    19.2035 </r>
       <r>    15.6562     1.5701    19.4081 </r>
       <r>    15.7865     1.0155    19.5404 </r>
       <r>    15.9168     0.7952    19.6440 </r>
       <r>    16.0471     0.9507    19.7678 </r>
       <r>    16.1774     0.8610    19.8800 </r>
       <r>    16.3076     0.8230    19.9872 </r>
       <r>    16.4379     1.1128    20.1322 </r>
       <r>    16.5682     1.3167    20.3037 </r>
       <r>    16.6985     1.3111    20.4745 </r>
       <r>    16.8288     2.1667    20.7568 </r>
       <r>    16.9590     3.6153    21.2278 </r>
       <r>    17.0893     3.6341    21.7013 </r>
       <r>    17.2196     2.7185    22.0555 </r>
       <r>    17.3499     1.9690    22.3120 </r>
       <r>    17.4802     1.3475    22.4875 </r>
       <r>    17.6104     1.5882    22.6945 </r>
       <r>    17.7407     2.0910    22.9669 </r>
       <r>    17.8710     1.8416    23.2068 </r>
       <r>    18.0013     1.4462    23.3952 </r>
       <r>    18.1316     1.0692    23.5345 </r>
       <r>    18.2619     1.0543    23.6718 </r>
       <r>    18.3921     1.9688    23.9283 </r>
       <r>    18.5224     2.4934    24.2532 </r>
       <r>    18.6527     2.2327    24.5441 </r>
       <r>    18.7830     2.0055    24.8053 </r>
       <r>    18.9133     1.5712    25.0100 </r>
       <r>    19.0435     1.9200    25.2602 </r>
       <r>    19.1738     2.3343    25.5643 </r>
       <r>    19.3041     2.2815    25.8615 </r>
       <r>    19.4344     2.3048    26.1618 </r>
       <r>    19.5647     1.4074    26.3452 </r>
       <r>    19.6949     0.6830    26.4341 </r>
       <r>    19.8252     0.7505    26.5319 </r>
       <r>    19.9555     1.2740    26.6979 </r>
       <r>    20.0858     1.1118    26.8428 </r>
       <r>    20.2161     0.5432    26.9135 </r>
       <r>    20.3463     0.2108    26.9410 </r>
       <r>    20.4766     0.3185    26.9825 </r>
       <r>    20.6069     0.7428    27.0793 </r>
       <r>    20.7372     1.2110    27.2370 </r>
       <r>    20.8675     1.2713    27.4027 </r>
       <r>    20.9978     0.9716    27.5292 </r>
       <r>    21.1280     0.8575    27.6410 </r>
       <r>    21.2583     0.7479    27.7384 </r>
       <r>    21.3886     1.0435    27.8743 </r>
       <r>    21.5189     1.7727    28.1053 </r>
       <r>    21.6492     1.4366    28.2925 </r>
       <r>    21.7794     0.3170    28.3338 </r>
       <r>    21.9097     0.0438    28.3395 </r>
       <r>    22.0400     0.8546    28.4508 </r>
       <r>    22.1703     1.8084    28.6864 </r>
       <r>    22.3006     2.2316    28.9771 </r>
       <r>    22.4308     2.0826    29.2485 </r>
       <r>    22.5611     1.2833    29.4156 </r>
       <r>    22.6914     0.4810    29.4783 </r>
       <r>    22.8217     0.3712    29.5267 </r>
       <r>    22.9520     0.4603    29.5866 </r>
       <r>    23.0822     0.5692    29.6608 </r>
       <r>    23.2125     0.8390    29.7701 </r>
       <r>    23.3428     0.6514    29.8550 </r>
       <r>    23.4731     0.3582    29.9017 </r>
       <r>    23.6034     0.5592    29.9745 </r>
       <r>    23.7337     1.0190    30.1073 </r>
       <r>    23.8639     1.3737    30.2862 </r>
       <r>    23.9942     1.5508    30.4883 </r>
       <r>    24.1245     1.4233    30.6737 </r>
       <r>    24.2548     1.4221    30.8590 </r>
       <r>    24.3851     1.3623    31.0365 </r>
       <r>    24.5153     1.1244    31.1829 </r>
       <r>    24.6456     0.8701    31.2963 </r>
       <r>    24.7759     0.5518    31.3682 </r>
       <r>    24.9062     0.4896    31.4320 </r>
       <r>    25.0365     0.2769    31.4680 </r>
       <r>    25.1667     0.0146    31.4699 </r>
       <r>    25.2970    -0.0211    31.4672 </r>
       <r>    25.4273    -0.0063    31.4664 </r>
       <r>    25.5576    -0.0119    31.4648 </r>
       <r>    25.6879     0.0124    31.4664 </r>
       <r>    25.8182     0.1658    31.4880 </r>
       <r>    25.9484     0.2492    31.5205 </r>
       <r>    26.0787     0.1790    31.5438 </r>
       <r>    26.2090     0.2443    31.5756 </r>
       <r>    26.3393     0.1811    31.5992 </r>
       <r>    26.4696     0.0140    31.6011 </r>
       <r>    26.5998    -0.0230    31.5981 </r>
       <r>    26.7301     0.0797    31.6085 </r>
       <r>    26.8604     0.2531    31.6414 </r>
       <r>    26.9907     0.1873    31.6658 </r>
       <r>    27.1210     0.0136    31.6676 </r>
       <r>    27.2512    -0.0218    31.6648 </r>
       <r>    27.3815     0.0862    31.6760 </r>
       <r>    27.5118     0.2452    31.7080 </r>
       <r>    27.6421     0.2264    31.7375 </r>
       <r>    27.7724     0.2436    31.7692 </r>
       <r>    27.9026     0.2115    31.7967 </r>
       <r>    28.0329     0.0413    31.8021 </r>
       <r>    28.1632    -0.0254    31.7988 </r>
       <r>    28.2935    -0.0229    31.7958 </r>
       <r>    28.4238     0.1504    31.8154 </r>
       <r>    28.5541     0.4721    31.8769 </r>
       <r>    28.6843     0.3844    31.9270 </r>
       <r>    28.8146     0.1691    31.9491 </r>
       <r>    28.9449     0.2389    31.9802 </r>
       <r>    29.0752     0.1567    32.0006 </r>
       <r>    29.2055     0.0089    32.0017 </r>
       <r>    29.3357    -0.0113    32.0003 </r>
       <r>    29.4660    -0.0020    32.0000 </r>
       <r>    29.5963    -0.0001    32.0000 </r>
       <r>    29.7266    -0.0000    32.0000 </r>
       <r>    29.8569    -0.0000    32.0000 </r>
       <r>    29.9871    -0.0000    32.0000 </r>
       <r>    30.1174    -0.0000    32.0000 </r>
       <r>    30.2477    -0.0000    32.0000 </r>
       <r>    30.3780     0.0000    32.0000 </r>
       <r>    30.5083     0.0000    32.0000 </r>
       <r>    30.6385     0.0000    32.0000 </r>
       <r>    30.7688     0.0000    32.0000 </r>
       <r>    30.8991     0.0000    32.0000 </r>
      </set>
     </set>
    </array>
   </total>
  </dos>
 </calculation>
 <structure name="finalpos" >
  <crystal>
   <varray name="basis" >
    <v>       0.00000000       2.71500000       2.71500000 </v>
    <v>       2.71500000       0.00000000       2.71500000 </v>
    <v>       2.71500000       2.71500000       0.00000000 </v>
   </varray>
   <i name="volume">     40.02575175 </i>
   <varray name="rec_basis" >
    <v>      -0.18416206       0.18416206       0.18416206 </v>
    <v>       0.18416206      -0.18416206       0.18416206 </v>
    <v>       0.18416206       0.18416206      -0.18416206 </v>
   </varray>
  </crystal>
  <varray name="positions" >
   <v>       0.00000000       0.00000000       0.00000000 </v>
   <v>       0.25000000       0.25000000       0.25000000 </v>
  </varray>
 </structure>
</modeling>
