 vasp.5.3.3.4 18Dez12 (build Jun 09 2015 23:09:51) complex                      
  
 POSCAR found :  2 types and       8 ions
 LDA part: xc-table for Pade appr. of Perdew
 found WAVECAR, reading the header
 WAVECAR: different cutoff or change in lattice found
 POSCAR, INCAR and KPOINTS ok, starting setup
 WARNING: small aliasing (wrap around) errors must be expected
 FFT: planning ...
 reading WAVECAR
 the WAVECAR file was read sucessfully
 initial charge from wavefunction
 entering main loop
       N       E                     dE             d eps       ncg     rms          rms(c)
DAV:   1    -0.804182473779E+02   -0.80418E+02   -0.72044E+02   455   0.208E+02    0.369E+01
DAV:   2    -0.484300378403E+02    0.31988E+02   -0.11265E+02   440   0.641E+01    0.986E+00
DAV:   3    -0.480050673468E+02    0.42497E+00   -0.10212E+01   516   0.186E+01    0.320E+00
DAV:   4    -0.478336740914E+02    0.17139E+00   -0.18105E+00   470   0.732E+00    0.230E+00
DAV:   5    -0.477190409398E+02    0.11463E+00   -0.55789E-01   490   0.428E+00    0.778E-02
DAV:   6    -0.477209177647E+02   -0.18768E-02   -0.16893E-02   468   0.935E-01    0.323E-02
DAV:   7    -0.477209937020E+02   -0.75937E-04   -0.56006E-04   458   0.139E-01
   1 F= -.47720994E+02 E0= -.47721730E+02  d E =0.220935E-02
 writing wavefunctions
