 vasp.5.3.3.4 18Dez12 (build Jun 09 2015 23:09:51) complex                      
  
 POSCAR found :  1 types and       4 ions
 LDA part: xc-table for Pade appr. of Perdew
 found WAVECAR, reading the header
 WAVECAR: different cutoff or change in lattice found
 POSCAR, INCAR and KPOINTS ok, starting setup
 WARNING: small aliasing (wrap around) errors must be expected
 FFT: planning ...
 reading WAVECAR
 the WAVECAR file was read sucessfully
 initial charge from wavefunction
 entering main loop
       N       E                     dE             d eps       ncg     rms          rms(c)
DAV:   1    -0.204896481032E+02   -0.20490E+02   -0.94808E+01   100   0.632E+01    0.612E+00
DAV:   2    -0.198004394139E+02    0.68921E+00   -0.29351E+00   112   0.116E+01    0.358E+00
DAV:   3    -0.192693162578E+02    0.53112E+00   -0.71457E-01    96   0.517E+00    0.143E-01
DAV:   4    -0.192686580081E+02    0.65825E-03   -0.45891E-03   112   0.620E-01    0.594E-02
DAV:   5    -0.192684597771E+02    0.19823E-03   -0.57159E-05    56   0.665E-02    0.641E-03
DAV:   6    -0.192684635949E+02   -0.38178E-05   -0.70152E-06    48   0.253E-02
   1 F= -.19268464E+02 E0= -.19253394E+02  d E =-.452075E-01
 writing wavefunctions
