 vasp.5.3.3.4 18Dez12 (build Jun 09 2015 23:09:51) complex                      
  
 POSCAR found :  1 types and       4 ions
 LDA part: xc-table for Pade appr. of Perdew
 found WAVECAR, reading the header
 WAVECAR: different cutoff or change in lattice found
 POSCAR, INCAR and KPOINTS ok, starting setup
 WARNING: small aliasing (wrap around) errors must be expected
 FFT: planning ...
 reading WAVECAR
 the WAVECAR file was read sucessfully
 initial charge from wavefunction
 entering main loop
       N       E                     dE             d eps       ncg     rms          rms(c)
DAV:   1    -0.204929534457E+02   -0.20493E+02   -0.98870E+01   100   0.634E+01    0.629E+00
DAV:   2    -0.197222611529E+02    0.77069E+00   -0.26400E+00   108   0.108E+01    0.365E+00
DAV:   3    -0.191710592453E+02    0.55120E+00   -0.70085E-01   104   0.495E+00    0.128E-01
DAV:   4    -0.191705093597E+02    0.54989E-03   -0.39657E-03   104   0.534E-01    0.573E-02
DAV:   5    -0.191703154871E+02    0.19387E-03   -0.37544E-05    52   0.495E-02    0.502E-03
DAV:   6    -0.191703151941E+02    0.29299E-06   -0.53644E-06    48   0.158E-02
   1 F= -.19170315E+02 E0= -.19156035E+02  d E =-.428392E-01
 writing wavefunctions
