unknown system                          
   1.00000000000000     
     3.247505    0.000000    0.000000
    -1.623753    2.812422    0.000000
     0.000000    0.000000    5.290818
   Ga   N 
     2     2
Direct
  0.333333  0.666667  0.999120
  0.666667  0.333333  0.499120
  0.333333  0.666667  0.375880
  0.666667  0.333333  0.875880
 
   48   48   72
  2.4098      2.4425      2.5402      2.7022      2.9279      3.2183      3.5772      4.0113      4.5305      5.1465    
  5.8713      6.7152      7.6833      8.7680      9.9492      11.197      12.473      13.734      14.933      16.028    
  16.978      17.751      18.320      18.669      18.786      18.669      18.320      17.751      16.978      16.028    
  14.934      13.734      12.473      11.197      9.9493      8.7681      7.6834      6.7152      5.8713      5.1465    
  4.5305      4.0113      3.5772      3.2183      2.9279      2.7022      2.5403      2.4425      2.4425      2.4425    
  2.5099      2.6435      2.8420      3.1052      3.4359      3.8405      4.3292      4.9153      5.6127      6.4340    
  7.3877      8.4765      9.6920      11.011      12.400      13.817      15.214      16.540      17.742      18.773    
  19.588      20.152      20.441      20.441      20.152      19.588      18.773      17.742      16.540      15.214    
  13.817      12.400      11.011      9.6921      8.4766      7.3878      6.4340      5.6128      4.9154      4.3293    
  3.8405      3.4359      3.1052      2.8420      2.6435      2.5099      2.5403      2.5056      2.5403      2.6435    
  2.8136      3.0494      3.3528      3.7294      4.1897      4.7480      5.4202      6.2210      7.1616      8.2471    
  9.4749      10.833      12.298      13.832      15.388      16.914      18.350      19.637      20.714      21.527    
  22.033      22.205      22.033      21.527      20.714      19.637      18.350      16.914      15.388      13.832    
  12.298      10.834      9.4749      8.2471      7.1617      6.2210      5.4202      4.7481      4.1897      3.7294    
  3.3528      3.0494      2.8136      2.6435      2.7022      2.6316      2.6316      2.7022      2.8420      3.0494    
  3.3253      3.6746      4.1077      4.6393      5.2869      6.0678      6.9955      8.0777      9.3144      10.697    
  12.210      13.826      15.507      17.203      18.853      20.388      21.737      22.826      23.592      23.988    
  23.988      23.592      22.826      21.737      20.389      18.853      17.203      15.508      13.826      12.210    
  10.697      9.3144      8.0778      6.9956      6.0678      5.2869      4.6393      4.1077      3.6746      3.3253    
  3.0494      2.8420      2.9279      2.8205      2.7844      2.8205      2.9279      3.1052      3.3528      3.6746    
  4.0806      4.5857      5.2086      5.9685      6.8817      7.9585      9.2017      10.606      12.159      13.840    
  15.620      17.460      19.303      21.079      22.705      24.094      25.160      25.832      26.062      25.832    
  25.160      24.094      22.706      21.079      19.303      17.460      15.621      13.840      12.159      10.606    
  9.2017      7.9585      6.8817      5.9685      5.2086      4.5857      4.0806      3.6746      3.3528      3.1052    
  3.2183      3.0731      3.0000      3.0000      3.0731      3.2183      3.4359      3.7294      4.1077      4.5857    
  5.1827      5.9196      6.8151      7.8824      9.1273      10.548      12.136      13.877      15.749      17.720    
  19.742      21.752      23.662      25.374      26.780      27.781      28.302      28.302      27.781      26.780    
  25.374      23.662      21.752      19.742      17.720      15.749      13.877      12.136      10.548      9.1274    
  7.8824      6.8151      5.9196      5.1827      4.5857      4.1077      3.7294      3.4359      3.5772      3.3916    
  3.2804      3.2433      3.2804      3.3916      3.5772      3.8405      4.1897      4.6393      5.2086      5.9196    
  6.7932      7.8453      9.0850      10.514      12.129      13.921      15.876      17.972      20.173      22.418    
  24.624      26.681      28.467      29.854      30.736      31.039      30.736      29.854      28.467      26.681    
  24.624      22.418      20.173      17.972      15.876      13.921      12.129      10.514      9.0850      7.8453    
  6.7932      5.9196      5.2086      4.6393      4.1897      3.8405      4.0113      3.7805      3.6290      3.5537    
  3.5537      3.6290      3.7805      4.0113      4.3293      4.7481      5.2869      5.9685      6.8151      7.8453    
  9.0713      10.499      12.128      13.958      15.982      18.191      20.559      23.037      25.546      27.973    
  30.178      32.011      33.327      34.016      34.016      33.327      32.011      30.178      27.973      25.546    
  23.037      20.559      18.191      15.983      13.958      12.128      10.499      9.0713      7.8453      6.8151    
  5.9685      5.2869      4.7481      4.3293      4.5305      4.2468      4.0510      3.9357      3.8976      3.9357    
  4.0510      4.2468      4.5305      4.9154      5.4202      6.0678      6.8817      7.8824      9.0850      10.499    
  12.128      13.979      16.053      18.352      20.865      23.558      26.360      29.162      31.813      34.138    
  35.958      37.120      37.520      37.120      35.958      34.138      31.813      29.162      26.360      23.558    
  20.865      18.352      16.053      13.979      12.129      10.499      9.0850      7.8824      6.8817      6.0678    
  5.4202      4.9154      5.1465      4.7995      4.5532      4.3949      4.3174      4.3174      4.3949      4.5532    
  4.7995      5.1465      5.6128      6.2210      6.9956      7.9585      9.1274      10.514      12.128      13.979    
  16.077      18.437      21.062      23.934      27.000      30.157      33.252      36.092      38.467      40.180    
  41.077      41.077      40.180      38.467      36.092      33.252      30.157      27.000      23.935      21.062    
  18.437      16.078      13.979      12.128      10.514      9.1274      7.9585      6.9956      6.2210      5.6128    
  5.8713      5.4488      5.1437      4.9378      4.8189      4.7800      4.8189      4.9378      5.1437      5.4488    
  5.8714      6.4340      7.1617      8.0778      9.2017      10.548      12.129      13.958      16.053      18.437    
  21.130      24.132      27.410      30.875      34.380      37.724      40.671      42.984      44.462      44.971    
  44.462      42.984      40.671      37.724      34.380      30.875      27.410      24.132      21.130      18.437    
  16.053      13.958      12.129      10.548      9.2017      8.0778      7.1617      6.4340      6.7152      6.2048    
  5.8310      5.5711      5.4074      5.3284      5.3284      5.4074      5.5711      5.8310      6.2048      6.7152    
  7.3878      8.2471      9.3144      10.606      12.136      13.921      15.983      18.352      21.062      24.132    
  27.550      31.251      35.100      38.898      42.394      45.319      47.426      48.530      48.530      47.426    
  45.319      42.394      38.898      35.100      31.251      27.550      24.132      21.062      18.352      15.983    
  13.921      12.136      10.606      9.3144      8.2471      7.3878      7.6834      7.0720      6.6171      6.2936    
  6.0795      5.9580      5.9186      5.9580      6.0795      6.2937      6.6171      7.0720      7.6834      8.4766    
  9.4749      10.697      12.159      13.877      15.876      18.191      20.865      23.935      27.410      31.251    
  35.347      39.512      43.490      46.992      49.735      51.483      52.084      51.483      49.735      46.992    
  43.490      39.512      35.347      31.251      27.410      23.935      20.865      18.191      15.876      13.877    
  12.159      10.697      9.4749      8.4766      8.7681      8.0427      7.4936      7.0955      6.8234      6.6554    
  6.5756      6.5756      6.6554      6.8234      7.0955      7.4936      8.0427      8.7681      9.6921      10.834    
  12.210      13.840      15.749      17.972      20.559      23.558      27.000      30.875      35.100      39.512    
  43.867      47.866      51.200      53.597      54.852      54.852      53.597      51.200      47.866      43.866    
  39.512      35.100      30.875      27.000      23.558      20.559      17.972      15.749      13.840      12.210    
  10.834      9.6921      9.9493      9.0991      8.4429      7.9582      7.6189      7.3991      7.2769      7.2379    
  7.2769      7.3991      7.6189      7.9582      8.4429      9.0991      9.9493      11.011      12.298      13.826    
  15.621      17.720      20.173      23.037      26.360      30.157      34.380      38.898      43.490      47.866    
  51.702      54.701      56.613      57.271      56.613      54.701      51.702      47.866      43.490      38.898    
  34.380      30.157      26.360      23.037      20.173      17.720      15.621      13.826      12.298      11.011    
  11.197      10.214      9.4388      8.8548      8.4371      8.1577      7.9894      7.9111      7.9111      7.9894    
  8.1577      8.4371      8.8547      9.4388      10.214      11.197      12.400      13.832      15.508      17.460    
  19.742      22.418      25.546      29.162      33.252      37.724      42.394      46.992      51.200      54.701    
  57.218      58.536      58.536      57.218      54.701      51.200      46.992      42.394      37.724      33.252    
  29.162      25.546      22.418      19.742      17.460      15.508      13.832      12.400      12.473      11.351    
  10.447      9.7501      9.2407      8.8909      8.6700      8.5503      8.5126      8.5503      8.6700      8.8909    
  9.2407      9.7501      10.447      11.351      12.473      13.817      15.388      17.203      19.303      21.752    
  24.624      27.973      31.813      36.092      40.671      45.319      49.735      53.597      56.613      58.536    
  59.196      58.536      56.613      53.597      49.735      45.319      40.671      36.092      31.813      27.973    
  24.624      21.752      19.303      17.203      15.388      13.817      13.734      12.471      11.428      10.605    
  9.9885      9.5539      9.2694      9.1024      9.0263      9.0263      9.1024      9.2694      9.5539      9.9885    
  10.605      11.428      12.471      13.734      15.214      16.914      18.853      21.079      23.663      26.681    
  30.178      34.138      38.467      42.984      47.426      51.483      54.852      57.271      58.536      58.536    
  57.271      54.852      51.483      47.426      42.984      38.467      34.138      30.178      26.681      23.662    
  21.079      18.853      16.914      15.214      14.934      13.532      12.345      11.383      10.641      10.103    
  9.7393      9.5137      9.3938      9.3566      9.3938      9.5137      9.7393      10.103      10.641      11.383    
  12.345      13.532      14.934      16.540      18.350      20.389      22.706      25.374      28.467      32.011    
  35.958      40.180      44.462      48.530      52.084      54.852      56.613      57.218      56.613      54.852    
  52.084      48.530      44.462      40.180      35.958      32.011      28.467      25.374      22.706      20.389    
  18.350      16.540      16.028      14.496      13.164      12.052      11.168      10.506      10.041      9.7388    
  9.5630      9.4835      9.4835      9.5630      9.7388      10.041      10.506      11.168      12.052      13.164    
  14.496      16.028      17.742      19.637      21.737      24.095      26.780      29.854      33.327      37.121    
  41.078      44.971      48.530      51.483      53.597      54.701      54.701      53.597      51.483      48.530    
  44.971      41.077      37.120      33.327      29.854      26.780      24.094      21.737      19.637      17.742    
  16.978      15.333      13.862      12.594      11.554      10.745      10.154      9.7510      9.4994      9.3647    
  9.3227      9.3647      9.4994      9.7510      10.154      10.745      11.554      12.594      13.862      15.333    
  16.978      18.773      20.714      22.826      25.161      27.781      30.736      34.016      37.520      41.078    
  44.462      47.426      49.735      51.200      51.702      51.200      49.735      47.426      44.462      41.077    
  37.520      34.016      30.736      27.781      25.160      22.826      20.714      18.773      17.751      16.020    
  14.424      13.006      11.799      10.825      10.082      9.5499      9.1954      8.9837      8.8858      8.8858    
  8.9836      9.1954      9.5499      10.082      10.825      11.799      13.006      14.424      16.020      17.751    
  19.588      21.527      23.592      25.832      28.303      31.039      34.016      37.121      40.180      42.984    
  45.319      46.992      47.866      47.866      46.992      45.319      42.984      40.180      37.120      34.016    
  31.039      28.302      25.832      23.592      21.527      19.588      18.320      16.542      14.850      13.295    
  11.924      10.773      9.8561      9.1652      8.6762      8.3578      8.1804      8.1237      8.1804      8.3578    
  8.6762      9.1652      9.8561      10.773      11.924      13.295      14.850      16.542      18.320      20.152    
  22.033      23.988      26.062      28.303      30.736      33.327      35.958      38.467      40.671      42.394    
  43.490      43.867      43.490      42.394      40.671      38.467      35.958      33.327      30.736      28.302    
  26.062      23.988      22.033      20.152      18.669      16.892      15.145      13.481      11.961      10.633    
  9.5283      8.6545      7.9994      7.5402      7.2514      7.1125      7.1125      7.2514      7.5402      7.9994    
  8.6545      9.5284      10.633      11.961      13.481      15.145      16.892      18.669      20.441      22.206    
  23.988      25.832      27.781      29.854      32.011      34.138      36.092      37.724      38.898      39.512    
  39.512      38.898      37.724      36.092      34.138      32.011      29.854      27.781      25.832      23.988    
  22.205      20.441      18.786      17.068      15.317      13.588      11.948      10.459      9.1671      8.0957    
  7.2486      6.6152      6.1788      5.9238      5.8400      5.9238      6.1788      6.6152      7.2487      8.0957    
  9.1671      10.459      11.948      13.588      15.317      17.068      18.786      20.441      22.033      23.592    
  25.161      26.780      28.467      30.178      31.813      33.252      34.380      35.100      35.347      35.100    
  34.380      33.252      31.813      30.178      28.467      26.780      25.160      23.592      22.033      20.441    
  18.669      17.067      15.373      13.635      11.923      10.307      8.8438      7.5755      6.5218      5.6875    
  5.0687      4.6597      4.4562      4.4562      4.6597      5.0688      5.6875      6.5219      7.5756      8.8439    
  10.307      11.923      13.636      15.373      17.068      18.669      20.152      21.527      22.826      24.095    
  25.374      26.681      27.973      29.162      30.157      30.875      31.251      31.251      30.875      30.157    
  29.162      27.973      26.681      25.374      24.094      22.826      21.527      20.152      18.320      16.892    
  15.316      13.635      11.912      10.218      8.6213      7.1753      5.9170      4.8678      4.0399      3.4412    
  3.0784      2.9568      3.0784      3.4413      4.0400      4.8679      5.9170      7.1754      8.6213      10.218    
  11.912      13.636      15.317      16.892      18.320      19.588      20.714      21.737      22.706      23.663    
  24.624      25.546      26.360      27.000      27.410      27.550      27.410      27.000      26.360      25.546    
  24.624      23.662      22.705      21.737      20.714      19.588      17.751      16.542      15.145      13.588    
  11.923      10.218      8.5420      6.9581      5.5169      4.2568      3.2071      2.3922      1.8338      1.5496    
  1.5496      1.8338      2.3922      3.2071      4.2569      5.5170      6.9582      8.5421      10.218      11.923    
  13.588      15.145      16.542      17.751      18.773      19.637      20.389      21.079      21.752      22.418    
  23.037      23.558      23.935      24.132      24.132      23.934      23.558      23.037      22.418      21.752    
  21.079      20.388      19.637      18.773      16.978      16.020      14.850      13.481      11.948      10.306    
  8.6212      6.9580      5.3771      3.9308      2.6653      1.6230     0.84309     0.35927     0.19516     0.35929    
 0.84313      1.6231      2.6654      3.9309      5.3772      6.9582      8.6213      10.307      11.948      13.481    
  14.850      16.020      16.978      17.742      18.350      18.853      19.303      19.742      20.173      20.559    
  20.865      21.062      21.130      21.062      20.865      20.559      20.173      19.742      19.303      18.853    
  18.350      17.742      16.028      15.333      14.424      13.295      11.960      10.459      8.8438      7.1753    
  5.5169      3.9308      2.4775      1.2164     0.20526     -.50365     -.86943     -.86942     -.50361     0.20533    
  1.2165      2.4776      3.9309      5.5170      7.1754      8.8439      10.459      11.961      13.295      14.424    
  15.333      16.028      16.540      16.914      17.203      17.460      17.720      17.972      18.191      18.352    
  18.437      18.437      18.352      18.191      17.972      17.720      17.460      17.203      16.914      16.540    
  14.933      14.496      13.861      13.006      11.924      10.633      9.1670      7.5754      5.9169      4.2568    
  2.6653      1.2164     -.14863E-01 -.95701     -1.5497     -1.7520     -1.5496     -.95695     -.14780E-01  1.2165    
  2.6654      4.2569      5.9170      7.5756      9.1671      10.633      11.924      13.006      13.862      14.496    
  14.934      15.214      15.388      15.508      15.621      15.749      15.876      15.983      16.053      16.077    
  16.053      15.982      15.876      15.749      15.620      15.507      15.388      15.214      13.734      13.532    
  13.164      12.594      11.799      10.773      9.5282      8.0956      6.5217      4.8677      3.2070      1.6230    
 0.20523     -.95702     -1.7836     -2.2135     -2.2135     -1.7836     -.95695     0.20533      1.6231      3.2071    
  4.8679      6.5219      8.0957      9.5284      10.773      11.799      12.594      13.164      13.532      13.734    
  13.817      13.832      13.826      13.840      13.877      13.921      13.958      13.979      13.979      13.958    
  13.921      13.877      13.840      13.826      13.832      13.817      12.473      12.471      12.345      12.052    
  11.554      10.825      9.8560      8.6543      7.2485      5.6874      4.0398      2.3921     0.84302     -.50370    
 -1.5497     -2.2135     -2.4410     -2.2135     -1.5496     -.50361     0.84313      2.3922      4.0400      5.6875    
  7.2487      8.6545      9.8561      10.825      11.554      12.052      12.345      12.471      12.473      12.400    
  12.298      12.210      12.159      12.136      12.129      12.128      12.128      12.128      12.129      12.136    
  12.159      12.210      12.298      12.400      11.197      11.351      11.428      11.383      11.168      10.745    
  10.082      9.1650      7.9993      6.6150      5.0686      3.4411      1.8337     0.35919     -.86949     -1.7521    
 -2.2135     -2.2135     -1.7520     -.86942     0.35929      1.8338      3.4413      5.0688      6.6152      7.9994    
  9.1652      10.082      10.745      11.168      11.383      11.428      11.351      11.197      11.011      10.834    
  10.697      10.606      10.548      10.514      10.499      10.499      10.514      10.548      10.606      10.697    
  10.833      11.011      9.9492      10.214      10.447      10.605      10.641      10.506      10.154      9.5498    
  8.6761      7.5400      6.1786      4.6596      3.0783      1.5494     0.19507     -.86949     -1.5497     -1.7836    
 -1.5497     -.86943     0.19516      1.5496      3.0784      4.6597      6.1788      7.5402      8.6762      9.5499    
  10.154      10.506      10.641      10.605      10.447      10.214      9.9493      9.6921      9.4749      9.3144    
  9.2017      9.1274      9.0850      9.0713      9.0850      9.1273      9.2017      9.3144      9.4749      9.6920    
  8.7680      9.0990      9.4387      9.7500      9.9884      10.103      10.041      9.7508      9.1952      8.3576    
  7.2512      5.9236      4.4560      2.9567      1.5494     0.35919     -.50370     -.95702     -.95701     -.50365    
 0.35927      1.5496      2.9568      4.4562      5.9238      7.2514      8.3578      9.1954      9.7510      10.041    
  10.103      9.9885      9.7501      9.4388      9.0991      8.7681      8.4766      8.2471      8.0778      7.9585    
  7.8824      7.8453      7.8453      7.8824      7.9585      8.0777      8.2471      8.4765      7.6833      8.0427    
  8.4429      8.8547      9.2406      9.5538      9.7392      9.7387      9.4992      8.9835      8.1802      7.1124    
  5.8398      4.4560      3.0783      1.8337     0.84302     0.20523     -.14863E-01 0.20526     0.84309      1.8338    
  3.0784      4.4562      5.8400      7.1125      8.1804      8.9836      9.4994      9.7388      9.7393      9.5539    
  9.2407      8.8547      8.4429      8.0427      7.6834      7.3878      7.1617      6.9956      6.8817      6.8151    
  6.7932      6.8151      6.8817      6.9955      7.1616      7.3877      6.7152      7.0720      7.4935      7.9582    
  8.4370      8.8908      9.2693      9.5136      9.5629      9.3646      8.8856      8.1235      7.1124      5.9236    
  4.6596      3.4411      2.3921      1.6230      1.2164      1.2164      1.6230      2.3922      3.4412      4.6597    
  5.9238      7.1125      8.1237      8.8858      9.3647      9.5630      9.5137      9.2694      8.8909      8.4371    
  7.9582      7.4936      7.0720      6.7152      6.4340      6.2210      6.0678      5.9685      5.9196      5.9196    
  5.9685      6.0678      6.2210      6.4340      5.8713      6.2047      6.6171      7.0954      7.6189      8.1576    
  8.6699      9.1023      9.3937      9.4834      9.3226      8.8856      8.1802      7.2512      6.1786      5.0686    
  4.0398      3.2070      2.6653      2.4775      2.6653      3.2071      4.0399      5.0687      6.1788      7.2514    
  8.1804      8.8858      9.3227      9.4835      9.3938      9.1024      8.6700      8.1577      7.6189      7.0955    
  6.6171      6.2048      5.8714      5.6128      5.4202      5.2869      5.2086      5.1827      5.2086      5.2869    
  5.4202      5.6127      5.1465      5.4488      5.8309      6.2936      6.8233      7.3991      7.9894      8.5502    
  9.0262      9.3565      9.4834      9.3646      8.9835      8.3576      7.5400      6.6150      5.6874      4.8677    
  4.2568      3.9308      3.9308      4.2568      4.8678      5.6875      6.6152      7.5402      8.3578      8.9837    
  9.3647      9.4835      9.3566      9.0263      8.5503      7.9894      7.3991      6.8234      6.2937      5.8310    
  5.4488      5.1465      4.9154      4.7481      4.6393      4.5857      4.5857      4.6393      4.7480      4.9153    
  4.5305      4.7994      5.1436      5.5710      6.0795      6.6554      7.2769      7.9110      8.5125      9.0262    
  9.3937      9.5629      9.4992      9.1952      8.6761      7.9993      7.2485      6.5217      5.9169      5.5169    
  5.3771      5.5169      5.9170      6.5218      7.2486      7.9994      8.6762      9.1954      9.4994      9.5630    
  9.3938      9.0263      8.5126      7.9111      7.2769      6.6554      6.0795      5.5711      5.1437      4.7995    
  4.5305      4.3293      4.1897      4.1077      4.0806      4.1077      4.1897      4.3292      4.0113      4.2467    
  4.5532      4.9378      5.4074      5.9579      6.5756      7.2378      7.9110      8.5502      9.1023      9.5136    
  9.7387      9.7508      9.5498      9.1650      8.6543      8.0956      7.5754      7.1753      6.9580      6.9581    
  7.1753      7.5755      8.0957      8.6545      9.1652      9.5499      9.7510      9.7388      9.5137      9.1024    
  8.5503      7.9111      7.2379      6.5756      5.9580      5.4074      4.9378      4.5532      4.2468      4.0113    
  3.8405      3.7294      3.6746      3.6746      3.7294      3.8405      3.5772      3.7805      4.0510      4.3949    
  4.8189      5.3284      5.9186      6.5756      7.2769      7.9894      8.6699      9.2693      9.7392      10.041    
  10.154      10.082      9.8560      9.5282      9.1670      8.8438      8.6212      8.5420      8.6213      8.8438    
  9.1671      9.5283      9.8561      10.082      10.154      10.041      9.7393      9.2694      8.6700      7.9894    
  7.2769      6.5756      5.9186      5.3284      4.8189      4.3949      4.0510      3.7805      3.5772      3.4359    
  3.3528      3.3253      3.3528      3.4359      3.2183      3.3916      3.6290      3.9357      4.3173      4.7799    
  5.3284      5.9579      6.6554      7.3991      8.1576      8.8908      9.5538      10.103      10.506      10.745    
  10.825      10.773      10.633      10.459      10.306      10.218      10.218      10.307      10.459      10.633    
  10.773      10.825      10.745      10.506      10.103      9.5539      8.8909      8.1577      7.3991      6.6554    
  5.9580      5.3284      4.7800      4.3174      3.9357      3.6290      3.3916      3.2183      3.1052      3.0494    
  3.0494      3.1052      2.9279      3.0730      3.2804      3.5537      3.8976      4.3173      4.8189      5.4074    
  6.0795      6.8233      7.6189      8.4370      9.2406      9.9884      10.641      11.168      11.554      11.799    
  11.924      11.960      11.948      11.923      11.912      11.923      11.948      11.961      11.924      11.799    
  11.554      11.168      10.641      9.9885      9.2407      8.4371      7.6189      6.8234      6.0795      5.4074    
  4.8189      4.3174      3.8976      3.5537      3.2804      3.0731      2.9279      2.8420      2.8136      2.8420    
  2.7022      2.8205      3.0000      3.2432      3.5537      3.9357      4.3949      4.9378      5.5710      6.2936    
  7.0954      7.9582      8.8547      9.7500      10.605      11.383      12.052      12.594      13.006      13.295    
  13.481      13.588      13.635      13.635      13.588      13.481      13.295      13.006      12.594      12.052    
  11.383      10.605      9.7501      8.8548      7.9582      7.0955      6.2936      5.5711      4.9378      4.3949    
  3.9357      3.5537      3.2433      3.0000      2.8205      2.7022      2.6435      2.6435      2.5402      2.6316    
  2.7844      3.0000      3.2804      3.6290      4.0510      4.5532      5.1436      5.8309      6.6171      7.4935    
  8.4429      9.4387      10.447      11.428      12.345      13.164      13.861      14.424      14.850      15.145    
  15.316      15.373      15.317      15.145      14.850      14.424      13.862      13.164      12.345      11.428    
  10.447      9.4388      8.4429      7.4936      6.6171      5.8310      5.1437      4.5532      4.0510      3.6290    
  3.2804      3.0000      2.7844      2.6316      2.5403      2.5099      2.4425      2.5056      2.6316      2.8205    
  3.0730      3.3916      3.7805      4.2467      4.7994      5.4488      6.2047      7.0720      8.0427      9.0990    
  10.214      11.351      12.471      13.532      14.496      15.333      16.020      16.542      16.892      17.068    
  17.068      16.892      16.542      16.020      15.333      14.496      13.532      12.471      11.351      10.214    
  9.0991      8.0427      7.0720      6.2048      5.4488      4.7995      4.2468      3.7805      3.3916      3.0731    
  2.8205      2.6316      2.5056      2.4425      2.3204      2.3510      2.4426      2.5947      2.8070      3.0804    
  3.4175      3.8233      4.3050      4.8711      5.5309      6.2920      7.1583      8.1227      9.1671      10.264    
  11.381      12.477      13.514      14.453      15.262      15.915      16.394      16.685      16.783      16.685    
  16.394      15.915      15.262      14.453      13.514      12.477      11.381      10.265      9.1672      8.1228    
  7.1584      6.2920      5.5310      4.8712      4.3050      3.8234      3.4176      3.0804      2.8070      2.5947    
  2.4426      2.3510      2.3510      2.3510      2.4140      2.5390      2.7249      2.9713      3.2796      3.6545    
  4.1034      4.6362      5.2637      5.9957      6.8393      7.7963      8.8598      10.009      11.215      12.439    
  13.640      14.772      15.793      16.662      17.345      17.816      18.056      18.056      17.816      17.345    
  16.662      15.793      14.773      13.640      12.439      11.215      10.009      8.8599      7.7964      6.8393    
  5.9958      5.2637      4.6362      4.1034      3.6545      3.2797      2.9713      2.7249      2.5390      2.4140    
  2.4426      2.4102      2.4426      2.5390      2.6978      2.9174      3.1985      3.5446      3.9633      4.4655    
  5.0636      5.7697      6.5929      7.5377      8.6018      9.7755      11.037      12.352      13.680      14.974    
  16.183      17.259      18.153      18.824      19.240      19.382      19.240      18.824      18.153      17.259    
  16.184      14.974      13.680      12.352      11.037      9.7756      8.6019      7.5377      6.5930      5.7697    
  5.0637      4.4656      3.9634      3.5446      3.1985      2.9175      2.6978      2.5390      2.5947      2.5287    