unknown system                          
   1.00000000000000     
     3.247505    0.000000    0.000000
    -1.623753    2.812422    0.000000
     0.000000    0.000000    5.290818
   Ga   N 
     2     2
Direct
  0.333333  0.666667  0.999120
  0.666667  0.333333  0.499120
  0.333333  0.666667  0.375880
  0.666667  0.333333  0.875880
 
   48   48   72
 0.24097754830E+01 0.24424906247E+01 0.25402499266E+01 0.27022028825E+01 0.29278776223E+01
 0.32183249711E+01 0.35771904073E+01 0.40113005189E+01 0.45304687728E+01 0.51464625891E+01
 0.58713025563E+01 0.67151732662E+01 0.76833292972E+01 0.87680218759E+01 0.99492179491E+01
 0.11196976315E+02 0.12473044512E+02 0.13733728388E+02 0.14933415183E+02 0.16028068891E+02
 0.16978148555E+02 0.17750623259E+02 0.18320002934E+02 0.18668528089E+02 0.18785841506E+02
 0.18668554753E+02 0.18320055985E+02 0.17750701263E+02 0.16978247847E+02 0.16028183182E+02
 0.14933536281E+02 0.13733847774E+02 0.12473155086E+02 0.11197073605E+02 0.99493004618E+01
 0.87680906693E+01 0.76833870532E+01 0.67152232067E+01 0.58713472246E+01 0.51465033968E+01
 0.45305058819E+01 0.40113330120E+01 0.35772168585E+01 0.32183442386E+01 0.29278895631E+01
 0.27022086605E+01 0.25402517131E+01 0.24424907627E+01 0.24424907627E+01 0.24424910614E+01
 0.25098655039E+01 0.26434835800E+01 0.28419797109E+01 0.31052345105E+01 0.34359136574E+01
 0.38404799093E+01 0.43292433605E+01 0.49153234417E+01 0.56127309960E+01 0.64339901549E+01
 0.73877347932E+01 0.84765369213E+01 0.96920297434E+01 0.11011025448E+02 0.12399978201E+02
 0.13816954107E+02 0.15213946665E+02 0.16539638059E+02 0.17742345844E+02 0.18773011490E+02
 0.19588118053E+02 0.20152369438E+02 0.20440915721E+02 0.20440927875E+02 0.20152406027E+02
 0.19588178892E+02 0.18773094822E+02 0.17742447307E+02 0.16539750699E+02 0.15214062102E+02
 0.13817064332E+02 0.12400077206E+02 0.11011110123E+02 0.96920998839E+01 0.84765945472E+01
 0.73877830132E+01 0.64340319367E+01 0.56127685826E+01 0.49153578369E+01 0.43292742548E+01
 0.38405060768E+01 0.34359337006E+01 0.31052476895E+01 0.28419865134E+01 0.26434857428E+01
 0.25098654121E+01 0.25402517131E+01 0.25055788763E+01 0.25402521256E+01 0.26434852853E+01
 0.28135531265E+01 0.30494273750E+01 0.33527516877E+01 0.37293609128E+01 0.41897199129E+01
 0.47480297830E+01 0.54201745057E+01 0.62210110625E+01 0.71616296344E+01 0.82470914867E+01
 0.94748587086E+01 0.10833497518E+02 0.12298153962E+02 0.13831577791E+02 0.15387792674E+02
 0.16913547050E+02 0.18350282066E+02 0.19636935021E+02 0.20713743381E+02 0.21526882272E+02
 0.22033369183E+02 0.22205411486E+02 0.22033391984E+02 0.21526928119E+02 0.20713811702E+02
 0.19637023086E+02 0.18350384375E+02 0.16913655951E+02 0.15387899959E+02 0.13831676501E+02
 0.12298239656E+02 0.10833568683E+02 0.94749163366E+01 0.82471379836E+01 0.71616680126E+01
 0.62210440898E+01 0.54202040311E+01 0.47480564349E+01 0.41897432186E+01 0.37293797975E+01
 0.33527651913E+01 0.30494353181E+01 0.28135564279E+01 0.26434857428E+01 0.27022086605E+01
 0.26315837363E+01 0.26315837946E+01 0.27022083651E+01 0.28419846896E+01 0.30494306565E+01
 0.33253031192E+01 0.36746295147E+01 0.41076526159E+01 0.46392527444E+01 0.52869224124E+01
 0.60678010026E+01 0.69955352156E+01 0.80777206121E+01 0.93143586286E+01 0.10697247040E+02
 0.12209777091E+02 0.13826126101E+02 0.15507455459E+02 0.17203163875E+02 0.18852969434E+02
 0.20388462782E+02 0.21736641405E+02 0.22825614594E+02 0.23591866731E+02 0.23987773678E+02
 0.23987784716E+02 0.23591900050E+02 0.22825670194E+02 0.21736717731E+02 0.20388555650E+02
 0.18853072075E+02 0.17203268196E+02 0.15507553870E+02 0.13826213078E+02 0.12209849898E+02
 0.10697305422E+02 0.93144042351E+01 0.80777561707E+01 0.69955636679E+01 0.60678248202E+01
 0.52869431763E+01 0.46392710281E+01 0.41076681718E+01 0.36746417102E+01 0.33253114818E+01
 0.30494353181E+01 0.28419865134E+01 0.29278895631E+01 0.28204934880E+01 0.27844422897E+01
 0.28204929103E+01 0.29278879542E+01 0.31052444183E+01 0.33527598124E+01 0.36746341750E+01
 0.40805687368E+01 0.45856534748E+01 0.52085608105E+01 0.59684903497E+01 0.68816868748E+01
 0.79584955365E+01 0.92016778536E+01 0.10606076392E+02 0.12158972654E+02 0.13840087328E+02
 0.15620411112E+02 0.17459774882E+02 0.19302874119E+02 0.21078900750E+02 0.22705477574E+02
 0.24094376723E+02 0.25160404685E+02 0.25832038103E+02 0.26061519192E+02 0.25832060079E+02
 0.25160448936E+02 0.24094442672E+02 0.22705562332E+02 0.21078998535E+02 0.19302977044E+02
 0.17459874730E+02 0.15620501170E+02 0.13840163405E+02 0.12159033371E+02 0.10606122668E+02
 0.92017120540E+01 0.79585206207E+01 0.68817057208E+01 0.59685052958E+01 0.52085734097E+01
 0.45856644536E+01 0.40805781474E+01 0.36746417102E+01 0.33527651913E+01 0.31052476895E+01
 0.32183442386E+01 0.30730658488E+01 0.30000100352E+01 0.30000095790E+01 0.30730643874E+01
 0.32183415883E+01 0.34359297894E+01 0.37293747999E+01 0.41076624484E+01 0.45856583029E+01
 0.51826920204E+01 0.59196107844E+01 0.68151064870E+01 0.78824076500E+01 0.91273379188E+01
 0.10548106774E+02 0.12136206251E+02 0.13877025079E+02 0.15748812680E+02 0.17719506886E+02
 0.19742250048E+02 0.21751540383E+02 0.23662371819E+02 0.25373921287E+02 0.26779608643E+02
 0.27781073274E+02 0.28302474970E+02 0.28302485648E+02 0.27781105720E+02 0.26779663320E+02
 0.25373996971E+02 0.23662464233E+02 0.21751642232E+02 0.19742352481E+02 0.17719601678E+02
 0.15748893994E+02 0.13877090171E+02 0.12136255176E+02 0.10548141535E+02 0.91273615199E+01
 0.78824233137E+01 0.68151171250E+01 0.59196186801E+01 0.51826986805E+01 0.45856644536E+01
 0.41076681718E+01 0.37293797975E+01 0.34359337006E+01 0.35772168585E+01 0.33915846086E+01
 0.32803968514E+01 0.32432714678E+01 0.32803960023E+01 0.33915828409E+01 0.35772141652E+01
 0.38405026506E+01 0.41897394527E+01 0.46392673358E+01 0.52085699345E+01 0.59196150118E+01
 0.67931799222E+01 0.78452950731E+01 0.90850193268E+01 0.10514227362E+02 0.12128959156E+02
 0.13920747730E+02 0.15876008886E+02 0.17972395843E+02 0.20172617887E+02 0.22417825787E+02
 0.24623586895E+02 0.26681308096E+02 0.28466637404E+02 0.29854217593E+02 0.30735945922E+02
 0.31038512761E+02 0.30735965457E+02 0.29854258037E+02 0.28466699697E+02 0.26681390450E+02
 0.24623683657E+02 0.22417928251E+02 0.20172716561E+02 0.17972482898E+02 0.15876079674E+02
 0.13920801006E+02 0.12128996343E+02 0.10514251450E+02 0.90850338675E+01 0.78453034566E+01
 0.67931849472E+01 0.59196186801E+01 0.52085734097E+01 0.46392710281E+01 0.41897432186E+01
 0.38405060768E+01 0.40113330120E+01 0.37805164312E+01 0.36290401274E+01 0.35537000068E+01
 0.35536998401E+01 0.36290395527E+01 0.37805153056E+01 0.40113312963E+01 0.43292721284E+01
 0.47480542476E+01 0.52869412404E+01 0.59685036023E+01 0.68151150712E+01 0.78452996375E+01
 0.90712742117E+01 0.10498657411E+02 0.12128170772E+02 0.13957722143E+02 0.15982496721E+02
 0.18191262845E+02 0.20558842098E+02 0.23036754713E+02 0.25545541921E+02 0.27972602472E+02
 0.30178305351E+02 0.32010805072E+02 0.33327121727E+02 0.34015806679E+02 0.34015814006E+02
 0.33327145204E+02 0.32010847868E+02 0.30178369268E+02 0.27972685267E+02 0.25545636725E+02
 0.23036851804E+02 0.20558931858E+02 0.18191338305E+02 0.15982554685E+02 0.13957762878E+02
 0.12128196877E+02 0.10498672549E+02 0.90712821079E+01 0.78453034566E+01 0.68151171251E+01
 0.59685052958E+01 0.52869431764E+01 0.47480564349E+01 0.43292742548E+01 0.45305058819E+01
 0.42467860486E+01 0.40510339246E+01 0.39357389449E+01 0.38975903596E+01 0.39357392224E+01
 0.40510342716E+01 0.42467862022E+01 0.45305057120E+01 0.49153574319E+01 0.54202036184E+01
 0.60678245569E+01 0.68817054264E+01 0.78824222036E+01 0.90850303400E+01 0.10498664086E+02
 0.12128496517E+02 0.13978581872E+02 0.16052897669E+02 0.18352095740E+02 0.20865171945E+02
 0.23557683573E+02 0.26360235040E+02 0.29161933819E+02 0.31812920563E+02 0.34137786388E+02
 0.35958275590E+02 0.37120478127E+02 0.37520164124E+02 0.37120485520E+02 0.35958294838E+02
 0.34137823267E+02 0.31812977947E+02 0.29162009036E+02 0.26360320238E+02 0.23557768542E+02
 0.20865247568E+02 0.18352156345E+02 0.16052941581E+02 0.13978610574E+02 0.12128513244E+02
 0.10498672549E+02 0.90850338675E+01 0.78824233137E+01 0.68817057209E+01 0.60678248202E+01
 0.54202040312E+01 0.49153578369E+01 0.51465033968E+01 0.47994646999E+01 0.45531949177E+01
 0.43949373290E+01 0.43173712674E+01 0.43173716493E+01 0.43949383614E+01 0.45531963350E+01
 0.47994662484E+01 0.51465049674E+01 0.56127702208E+01 0.62210458761E+01 0.69955655187E+01
 0.79585220639E+01 0.91273614843E+01 0.10514248110E+02 0.12128187627E+02 0.13978592239E+02
 0.16077478901E+02 0.18437190813E+02 0.21061989736E+02 0.23934473634E+02 0.27000417163E+02
 0.30157355645E+02 0.33252345007E+02 0.36092376632E+02 0.38467141801E+02 0.40179624660E+02
 0.41077371424E+02 0.41077369295E+02 0.40179621916E+02 0.38467147200E+02 0.36092398907E+02
 0.33252387921E+02 0.30157415995E+02 0.27000486399E+02 0.23934541606E+02 0.21062048286E+02
 0.18437235632E+02 0.16077509464E+02 0.13978610574E+02 0.12128196877E+02 0.10514251450E+02
 0.91273615199E+01 0.79585206207E+01 0.69955636679E+01 0.62210440898E+01 0.56127685827E+01
 0.58713472246E+01 0.54488169581E+01 0.51436926385E+01 0.49378483079E+01 0.48188980322E+01
 0.47799669554E+01 0.48188988989E+01 0.49378499219E+01 0.51436948546E+01 0.54488197108E+01
 0.58713505518E+01 0.64340358928E+01 0.71616725079E+01 0.80777607941E+01 0.92017159212E+01
 0.10548143185E+02 0.12128993711E+02 0.13957753415E+02 0.16052922641E+02 0.18437205277E+02
 0.21129858281E+02 0.24132233712E+02 0.27409602777E+02 0.30874820977E+02 0.34380407311E+02
 0.37724350966E+02 0.40671131376E+02 0.42984219711E+02 0.44462297703E+02 0.44970734096E+02
 0.44462281684E+02 0.42984196864E+02 0.40671115274E+02 0.37724352830E+02 0.34380431137E+02
 0.30874862766E+02 0.27409653471E+02 0.24132283520E+02 0.21129900026E+02 0.18437235632E+02
 0.16052941581E+02 0.13957762878E+02 0.12128996343E+02 0.10548141535E+02 0.92017120541E+01
 0.80777561708E+01 0.71616680126E+01 0.64340319368E+01 0.67152232067E+01 0.62047737372E+01
 0.58309678264E+01 0.55710504807E+01 0.54074007162E+01 0.53284040506E+01 0.53284044309E+01
 0.54074018308E+01 0.55710522973E+01 0.58309704020E+01 0.62047772676E+01 0.67152279617E+01
 0.73877891381E+01 0.82471452802E+01 0.93144119828E+01 0.10606129537E+02 0.12136259258E+02
 0.13920799989E+02 0.15982546212E+02 0.18352138671E+02 0.21062021316E+02 0.24132250040E+02
 0.27550366016E+02 0.31250651541E+02 0.35100081336E+02 0.38898071363E+02 0.42393763934E+02
 0.45318626943E+02 0.47426406400E+02 0.48530380732E+02 0.48530365530E+02 0.47426366921E+02
 0.45318578593E+02 0.42393724236E+02 0.38898052595E+02 0.35100086643E+02 0.31250675733E+02
 0.27550399559E+02 0.24132283520E+02 0.21062048286E+02 0.18352156345E+02 0.15982554685E+02
 0.13920801006E+02 0.12136255176E+02 0.10606122668E+02 0.93144042351E+01 0.82471379837E+01
 0.73877830132E+01 0.76833870549E+01 0.70720252543E+01 0.66171361938E+01 0.62936490454E+01
 0.60795399758E+01 0.59579978317E+01 0.59186463708E+01 0.59579984157E+01 0.60795410741E+01
 0.62936506497E+01 0.66171385108E+01 0.70720287470E+01 0.76833923039E+01 0.84766019700E+01
 0.94749258589E+01 0.10697316136E+02 0.12159043520E+02 0.13877097372E+02 0.15876081390E+02
 0.18191332559E+02 0.20865233928E+02 0.23934522313E+02 0.27409634269E+02 0.31250665557E+02
 0.35347404769E+02 0.39511963531E+02 0.43490238208E+02 0.46992364111E+02 0.49734881492E+02
 0.51483288581E+02 0.52084113786E+02 0.51483249287E+02 0.49734815882E+02 0.46992292485E+02
 0.43490179673E+02 0.39511929325E+02 0.35347396062E+02 0.31250675733E+02 0.27409653471E+02
 0.23934541606E+02 0.20865247568E+02 0.18191338305E+02 0.15876079674E+02 0.13877090171E+02
 0.12159033371E+02 0.10697305422E+02 0.94749163366E+01 0.84765945474E+01 0.87680906770E+01
 0.80427219241E+01 0.74935544023E+01 0.70954611173E+01 0.68233684800E+01 0.66554248121E+01
 0.65756482200E+01 0.65756484608E+01 0.66554253977E+01 0.68233691354E+01 0.70954617444E+01
 0.74935553604E+01 0.80427240753E+01 0.87680951220E+01 0.96921074822E+01 0.10833579548E+02
 0.12209863122E+02 0.13840176905E+02 0.15748904996E+02 0.17972488849E+02 0.20558931518E+02
 0.23557763142E+02 0.27000480514E+02 0.30874864265E+02 0.35100105011E+02 0.39511972145E+02
 0.43866547103E+02 0.47865796877E+02 0.51199976437E+02 0.53597115808E+02 0.54852187472E+02
 0.54852164061E+02 0.53597052402E+02 0.51199890817E+02 0.47865711007E+02 0.43866478592E+02
 0.39511929325E+02 0.35100086643E+02 0.30874862766E+02 0.27000486399E+02 0.23557768542E+02
 0.20558931858E+02 0.17972482898E+02 0.15748893994E+02 0.13840163405E+02 0.12209849898E+02
 0.10833568683E+02 0.96920998864E+01 0.99493004774E+01 0.90990580254E+01 0.84429252229E+01
 0.79582455197E+01 0.76189496938E+01 0.73991259141E+01 0.72769392826E+01 0.72378990130E+01
 0.72769395327E+01 0.73991259484E+01 0.76189489616E+01 0.79582439193E+01 0.84429234655E+01
 0.90990575908E+01 0.99493031353E+01 0.11011117220E+02 0.12298251461E+02 0.13826228565E+02
 0.15620518271E+02 0.17719617695E+02 0.20172729430E+02 0.23036861424E+02 0.26360329411E+02
 0.30157430593E+02 0.34380458983E+02 0.38898100813E+02 0.43490250996E+02 0.47865800505E+02
 0.51702225825E+02 0.54700736188E+02 0.56613364417E+02 0.57270861341E+02 0.56613319365E+02
 0.54700657374E+02 0.51702131830E+02 0.47865711007E+02 0.43490179673E+02 0.38898052595E+02
 0.34380431137E+02 0.30157415995E+02 0.26360320238E+02 0.23036851804E+02 0.20172716561E+02
 0.17719601679E+02 0.15620501170E+02 0.13826213078E+02 0.12298239657E+02 0.11011110129E+02
 0.11197073627E+02 0.10213648729E+02 0.94387700222E+01 0.88547545255E+01 0.84371143042E+01
 0.81576992218E+01 0.79894330734E+01 0.79111054909E+01 0.79111054384E+01 0.79894325813E+01
 0.81576975365E+01 0.84371108603E+01 0.88547495668E+01 0.94387648766E+01 0.10213645557E+02
 0.11197074725E+02 0.12400084189E+02 0.13831689691E+02 0.15507572301E+02 0.17459896685E+02
 0.19742376300E+02 0.22417952969E+02 0.25545663358E+02 0.29162040885E+02 0.33252429889E+02
 0.37724409660E+02 0.42393798002E+02 0.46992380190E+02 0.51199983197E+02 0.54700739632E+02
 0.57217995050E+02 0.58535623339E+02 0.58535602957E+02 0.57217938088E+02 0.54700657375E+02
 0.51199890817E+02 0.46992292485E+02 0.42393724236E+02 0.37724352830E+02 0.33252387921E+02
 0.29162009036E+02 0.25545636725E+02 0.22417928251E+02 0.19742352481E+02 0.17459874729E+02
 0.15507553868E+02 0.13831676499E+02 0.12400077212E+02 0.12473155108E+02 0.11351015648E+02
 0.10446815724E+02 0.97500652014E+01 0.92407108070E+01 0.88909322945E+01 0.86699975939E+01
 0.85502571472E+01 0.85126122328E+01 0.85502561351E+01 0.86699950452E+01 0.88909275975E+01
 0.92407038907E+01 0.97500569991E+01 0.10446808202E+02 0.11351011355E+02 0.12473156447E+02
 0.13817072884E+02 0.15387916187E+02 0.17203291706E+02 0.19303007233E+02 0.21751679078E+02
 0.24623727607E+02 0.27972737497E+02 0.31813040120E+02 0.36092472056E+02 0.40671198475E+02
 0.45318667982E+02 0.49734904510E+02 0.53597130575E+02 0.56613377388E+02 0.58535633801E+02
 0.59196056854E+02 0.58535602958E+02 0.56613319366E+02 0.53597052403E+02 0.49734815882E+02
 0.45318578593E+02 0.40671115274E+02 0.36092398907E+02 0.31812977947E+02 0.27972685267E+02
 0.24623683657E+02 0.21751642232E+02 0.19302977041E+02 0.17203268187E+02 0.15387899949E+02
 0.13817064332E+02 0.13733847783E+02 0.12470763346E+02 0.11428410480E+02 0.10605256425E+02
 0.99885369653E+01 0.95538682031E+01 0.92693928024E+01 0.91024026514E+01 0.90263222559E+01
 0.90263212066E+01 0.91023993852E+01 0.92693871261E+01 0.95538602337E+01 0.99885275047E+01
 0.10605247093E+02 0.11428403513E+02 0.12470761144E+02 0.13733852438E+02 0.15214075112E+02
 0.16913678342E+02 0.18853104733E+02 0.21079042621E+02 0.23662521337E+02 0.26681461792E+02
 0.30178454319E+02 0.34137919523E+02 0.38467249610E+02 0.42984298160E+02 0.47426459019E+02
 0.51483325121E+02 0.54852218608E+02 0.57270893383E+02 0.58535633800E+02 0.58535623339E+02
 0.57270861343E+02 0.54852164063E+02 0.51483249287E+02 0.47426366921E+02 0.42984196864E+02
 0.38467147200E+02 0.34137823267E+02 0.30178369268E+02 0.26681390450E+02 0.23662464233E+02
 0.21078998526E+02 0.18853072053E+02 0.16913655924E+02 0.15214062084E+02 0.14933536261E+02
 0.13531730421E+02 0.12345245707E+02 0.11382738875E+02 0.10641323114E+02 0.10103398478E+02
 0.97392703296E+01 0.95136726116E+01 0.93937914045E+01 0.93565857109E+01 0.93937881435E+01
 0.95136663998E+01 0.97392618676E+01 0.10103388934E+02 0.10641314095E+02 0.11382732269E+02
 0.12345243447E+02 0.13531734315E+02 0.14933548003E+02 0.16539772006E+02 0.18350417410E+02
 0.20388603061E+02 0.22705627044E+02 0.25374081387E+02 0.28466804118E+02 0.32010968082E+02
 0.35958422460E+02 0.40179745513E+02 0.44462389445E+02 0.48530448820E+02 0.52084169635E+02
 0.54852218607E+02 0.56613377386E+02 0.57217995048E+02 0.56613364417E+02 0.54852187473E+02
 0.52084113787E+02 0.48530365530E+02 0.44462281684E+02 0.40179621916E+02 0.35958294838E+02
 0.32010847868E+02 0.28466699697E+02 0.25373996968E+02 0.22705562313E+02 0.20388555609E+02
 0.18350384320E+02 0.16539750650E+02 0.16028183114E+02 0.14496165082E+02 0.13164273939E+02
 0.12052017997E+02 0.11168470212E+02 0.10506053127E+02 0.10040954536E+02 0.97387842908E+01
 0.95630037969E+01 0.94835404747E+01 0.94835384060E+01 0.95629980263E+01 0.97387760490E+01
 0.10040945628E+02 0.10506045599E+02 0.11168465993E+02 0.12052018651E+02 0.13164280668E+02
 0.14496179020E+02 0.16028205823E+02 0.17742481155E+02 0.19637071711E+02 0.21736785402E+02
 0.24094533280E+02 0.26779778647E+02 0.29854395679E+02 0.33327296073E+02 0.37120635406E+02
 0.41077502283E+02 0.44970837322E+02 0.48530448820E+02 0.51483325121E+02 0.53597130574E+02
 0.54700739630E+02 0.54700736187E+02 0.53597115808E+02 0.51483288582E+02 0.48530380732E+02
 0.44970734096E+02 0.41077369295E+02 0.37120485520E+02 0.33327145204E+02 0.29854258037E+02
 0.26779663314E+02 0.24094442639E+02 0.21736717665E+02 0.19637022995E+02 0.17742447213E+02
 0.16978247714E+02 0.15333005074E+02 0.13861610178E+02 0.12594441154E+02 0.11553879964E+02
 0.10745133986E+02 0.10154003822E+02 0.97509792258E+01 0.94993794165E+01 0.93646986426E+01
 0.93226980825E+01 0.93646945181E+01 0.94993724662E+01 0.97509717102E+01 0.10153998383E+02
 0.10745133000E+02 0.11553885069E+02 0.12594453165E+02 0.13861629474E+02 0.15333032347E+02
 0.16978284768E+02 0.18773144889E+02 0.20713879710E+02 0.22825761267E+02 0.25160566671E+02
 0.27781249885E+02 0.30736129956E+02 0.34015985122E+02 0.37520323686E+02 0.41077502283E+02
 0.44462389445E+02 0.47426459019E+02 0.49734904510E+02 0.51199983197E+02 0.51702225825E+02
 0.51199976436E+02 0.49734881492E+02 0.47426406400E+02 0.44462297703E+02 0.41077371424E+02
 0.37520164124E+02 0.34015814006E+02 0.30735965457E+02 0.27781105711E+02 0.25160448889E+02
 0.22825670100E+02 0.20713811567E+02 0.18773094671E+02 0.17750701051E+02 0.16019612827E+02
 0.14424435566E+02 0.13005633216E+02 0.11799277094E+02 0.10825279505E+02 0.10082334282E+02
 0.95499028967E+01 0.91953994426E+01 0.89836523049E+01 0.88858102648E+01 0.88858084645E+01
 0.89836477149E+01 0.91953942653E+01 0.95499001013E+01 0.10082336774E+02 0.10825289378E+02
 0.11799295259E+02 0.13005659613E+02 0.14424469927E+02 0.16019655708E+02 0.17750754677E+02
 0.19588247164E+02 0.21527016612E+02 0.23592013703E+02 0.25832201087E+02 0.28302651077E+02
 0.31038693080E+02 0.34015985122E+02 0.37120635406E+02 0.40179745513E+02 0.42984298160E+02
 0.45318667982E+02 0.46992380190E+02 0.47865800505E+02 0.47865796877E+02 0.46992364111E+02
 0.45318626943E+02 0.42984219711E+02 0.40179624660E+02 0.37120478127E+02 0.34015806679E+02
 0.31038512761E+02 0.28302485635E+02 0.25832060021E+02 0.23591899929E+02 0.21526927940E+02
 0.19588178679E+02 0.18320055692E+02 0.16541745010E+02 0.14850427007E+02 0.13294850825E+02
 0.11923937368E+02 0.10773028321E+02 0.98560830061E+01 0.91651907393E+01 0.86762138279E+01
 0.83577673468E+01 0.81803996139E+01 0.81236909783E+01 0.81803978265E+01 0.83577653735E+01
 0.86762144168E+01 0.91651969960E+01 0.98560975075E+01 0.10773052450E+02 0.11923971161E+02
 0.13294893469E+02 0.14850477830E+02 0.16541804579E+02 0.18320126511E+02 0.20152492160E+02
 0.22033498857E+02 0.23987916250E+02 0.26061675693E+02 0.28302651076E+02 0.30736129956E+02
 0.33327296073E+02 0.35958422460E+02 0.38467249610E+02 0.40671198475E+02 0.42393798002E+02
 0.43490250996E+02 0.43866547103E+02 0.43490238208E+02 0.42393763934E+02 0.40671131376E+02
 0.38467141801E+02 0.35958275590E+02 0.33327121727E+02 0.30735945922E+02 0.28302474956E+02
 0.26061519126E+02 0.23987784574E+02 0.22033391765E+02 0.20152405752E+02 0.18668554386E+02
 0.16892014381E+02 0.15144904066E+02 0.13481264297E+02 0.11960587835E+02 0.10632858299E+02
 0.95283385489E+01 0.86544546728E+01 0.79994232306E+01 0.75401884375E+01 0.72513764175E+01
 0.71125410163E+01 0.71125412870E+01 0.72513779484E+01 0.75401931992E+01 0.79994339183E+01
 0.86544739459E+01 0.95283682546E+01 0.10632898976E+02 0.11960638752E+02 0.13481324105E+02
 0.15144971837E+02 0.16892090612E+02 0.18668641487E+02 0.20441029495E+02 0.22205532289E+02
 0.23987916239E+02 0.25832201078E+02 0.27781249883E+02 0.29854395679E+02 0.32010968082E+02
 0.34137919523E+02 0.36092472056E+02 0.37724409660E+02 0.38898100813E+02 0.39511972145E+02
 0.39511963531E+02 0.38898071363E+02 0.37724350966E+02 0.36092376632E+02 0.34137786388E+02
 0.32010805072E+02 0.29854217593E+02 0.27781073262E+02 0.25832038035E+02 0.23987773524E+02
 0.22205411239E+02 0.20440927550E+02 0.18785841081E+02 0.17067514285E+02 0.15316518491E+02
 0.13588004639E+02 0.11948224377E+02 0.10459280254E+02 0.91670848770E+01 0.80957023558E+01
 0.72486305775E+01 0.66151847701E+01 0.61787526188E+01 0.59237975653E+01 0.58399940929E+01
 0.59238017509E+01 0.61787619093E+01 0.66152008292E+01 0.72486554323E+01 0.80957378272E+01
 0.91671319750E+01 0.10459338805E+02 0.11948293130E+02 0.13588081903E+02 0.15316603083E+02
 0.17067606389E+02 0.18785942595E+02 0.20441029461E+02 0.22033498816E+02 0.23592013671E+02
 0.25160566655E+02 0.26779778645E+02 0.28466804118E+02 0.30178454319E+02 0.31813040120E+02
 0.33252429889E+02 0.34380458984E+02 0.35100105011E+02 0.35347404769E+02 0.35100081336E+02
 0.34380407311E+02 0.33252345007E+02 0.31812920563E+02 0.30178305351E+02 0.28466637404E+02
 0.26779608635E+02 0.25160404623E+02 0.23591866578E+02 0.22033368923E+02 0.20440915363E+02
 0.18668527632E+02 0.17067499557E+02 0.15372743002E+02 0.13635443763E+02 0.11923405554E+02
 0.10306544782E+02 0.88438469464E+01 0.75755284266E+01 0.65218498090E+01 0.56875138353E+01
 0.50687478248E+01 0.46597278426E+01 0.44561859088E+01 0.44561901940E+01 0.46597407919E+01
 0.50687697804E+01 0.56875454799E+01 0.65218920993E+01 0.75755822604E+01 0.88439126644E+01
 0.10306621787E+02 0.11923492325E+02 0.13635538362E+02 0.15372843883E+02 0.17067606330E+02
 0.18668641397E+02 0.20152492066E+02 0.21527016536E+02 0.22825761220E+02 0.24094533261E+02
 0.25374081386E+02 0.26681461792E+02 0.27972737497E+02 0.29162040885E+02 0.30157430594E+02
 0.30874864265E+02 0.31250665557E+02 0.31250651541E+02 0.30874820977E+02 0.30157355645E+02
 0.29161933819E+02 0.27972602472E+02 0.26681308096E+02 0.25373921283E+02 0.24094376672E+02
 0.22825614453E+02 0.21526882016E+02 0.20152369069E+02 0.18320002472E+02 0.16891970583E+02
 0.15316486819E+02 0.13635426983E+02 0.11912009962E+02 0.10218110171E+02 0.86212630997E+01
 0.71753237292E+01 0.59169678022E+01 0.48678267746E+01 0.40399397955E+01 0.34412350368E+01
 0.30784324427E+01 0.29568108125E+01 0.30784462007E+01 0.34412618770E+01 0.40399787765E+01
 0.48678772166E+01 0.59170295516E+01 0.71753969642E+01 0.86213477933E+01 0.10218205565E+02
 0.11912114407E+02 0.13635538281E+02 0.15316602944E+02 0.16892090442E+02 0.18320126342E+02
 0.19588247022E+02 0.20713879611E+02 0.21736785349E+02 0.22705627028E+02 0.23662521337E+02
 0.24623727607E+02 0.25545663358E+02 0.26360329411E+02 0.27000480514E+02 0.27409634269E+02
 0.27550366016E+02 0.27409602777E+02 0.27000417163E+02 0.26360235040E+02 0.25545541921E+02
 0.24623586895E+02 0.23662371818E+02 0.22705477538E+02 0.21736641285E+02 0.20713743147E+02
 0.19588117697E+02 0.17750622822E+02 0.16541673679E+02 0.15144842237E+02 0.13587955305E+02
 0.11923371254E+02 0.10218092542E+02 0.85420142152E+01 0.69580672269E+01 0.55169161897E+01
 0.42568168553E+01 0.32070759904E+01 0.23921843998E+01 0.18338150633E+01 0.15495537586E+01
 0.15495634771E+01 0.18338433851E+01 0.23922292004E+01 0.32071347626E+01 0.42568876323E+01
 0.55169979840E+01 0.69581597997E+01 0.85421173842E+01 0.10218205473E+02 0.11923492152E+02
 0.13588081670E+02 0.15144971575E+02 0.16541804320E+02 0.17750754451E+02 0.18773144718E+02
 0.19637071603E+02 0.20388603011E+02 0.21079042610E+02 0.21751679078E+02 0.22417952969E+02
 0.23036861424E+02 0.23557763143E+02 0.23934522313E+02 0.24132250040E+02 0.24132233712E+02
 0.23934473634E+02 0.23557683573E+02 0.23036754713E+02 0.22417825787E+02 0.21751540383E+02
 0.21078900730E+02 0.20388462691E+02 0.19636934823E+02 0.18773011169E+02 0.16978148167E+02
 0.16019517456E+02 0.14850338484E+02 0.13481185572E+02 0.11948158155E+02 0.10306493127E+02
 0.86212274847E+01 0.69580488881E+01 0.53770737020E+01 0.39307799821E+01 0.26653419932E+01
 0.16230434160E+01 0.84308603169E+00 0.35926799875E+00 0.19516117656E+00 0.35929230176E+00
 0.84313236022E+00 0.16231080854E+01 0.26654212045E+01 0.39308708977E+01 0.53771748319E+01
 0.69581597092E+01 0.86213476104E+01 0.10306621521E+02 0.11948292803E+02 0.13481323747E+02
 0.14850477475E+02 0.16019655390E+02 0.16978284514E+02 0.17742480978E+02 0.18350417309E+02
 0.18853104694E+02 0.19303007228E+02 0.19742376300E+02 0.20172729430E+02 0.20558931518E+02
 0.20865233928E+02 0.21062021316E+02 0.21129858281E+02 0.21061989736E+02 0.20865171945E+02
 0.20558842098E+02 0.20172617887E+02 0.19742250048E+02 0.19302874111E+02 0.18852969373E+02
 0.18350281911E+02 0.17742345572E+02 0.16028068567E+02 0.15332891600E+02 0.14424326130E+02
 0.13294748230E+02 0.11960494548E+02 0.10459198314E+02 0.88437780997E+01 0.71752697663E+01
 0.55168790382E+01 0.39307612033E+01 0.24774603243E+01 0.12164141150E+01 0.20526255376E+00
 -.50364886372E+00 -.86943009003E+00 -.86941576475E+00 -.50360725751E+00 0.20532779697E+00
 0.12164982519E+01 0.24775588572E+01 0.39308708187E+01 0.55169978144E+01 0.71753967014E+01
 0.88439123172E+01 0.10459338394E+02 0.11960638306E+02 0.13294893024E+02 0.14424469519E+02
 0.15333032005E+02 0.16028205567E+02 0.16539771841E+02 0.16913678259E+02 0.17203291681E+02
 0.17459896684E+02 0.17719617695E+02 0.17972488849E+02 0.18191332559E+02 0.18352138671E+02
 0.18437205277E+02 0.18437190813E+02 0.18352095740E+02 0.18191262845E+02 0.17972395843E+02
 0.17719506886E+02 0.17459774881E+02 0.17203163841E+02 0.16913546940E+02 0.16539637846E+02
 0.14933414931E+02 0.14496041473E+02 0.13861487647E+02 0.13005514396E+02 0.11923824186E+02
 0.10632752296E+02 0.91669876579E+01 0.75754421309E+01 0.59168952766E+01 0.42567611178E+01
 0.26653051155E+01 0.12163963503E+01 -.14863215231E-01 -.95700889310E+00 -.15496708418E+01
 -.17520378548E+01 -.15496400739E+01 -.95694985917E+00 -.14780241944E-01 0.12164981905E+01
 0.26654210642E+01 0.42568874015E+01 0.59170292272E+01 0.75755818500E+01 0.91671314973E+01
 0.10632898459E+02 0.11923970641E+02 0.13005659125E+02 0.13861629053E+02 0.14496178688E+02
 0.14933547770E+02 0.15214074976E+02 0.15387916129E+02 0.15507572290E+02 0.15620518271E+02
 0.15748904996E+02 0.15876081390E+02 0.15982546212E+02 0.16052922641E+02 0.16077478901E+02
 0.16052897669E+02 0.15982496722E+02 0.15876008886E+02 0.15748812680E+02 0.15620411112E+02
 0.15507455444E+02 0.15387792605E+02 0.15213946511E+02 0.13733728205E+02 0.13531605357E+02
 0.13164147053E+02 0.12594314914E+02 0.11799152717E+02 0.10772906450E+02 0.95282201331E+01
 0.80955894263E+01 0.65217458371E+01 0.48677362144E+01 0.32070029416E+01 0.16229901063E+01
 0.20522875648E+00 -.95702496695E+00 -.17836135507E+01 -.22134693502E+01 -.22134533663E+01
 -.17835666018E+01 -.95694990058E+00 0.20532769425E+00 0.16231079042E+01 0.32071344913E+01
 0.48678768518E+01 0.65218916477E+01 0.80957373062E+01 0.95283676909E+01 0.10773051877E+02
 0.11799294712E+02 0.12594452680E+02 0.13164280270E+02 0.13531734020E+02 0.13733852246E+02
 0.13817072784E+02 0.13831689656E+02 0.13826228562E+02 0.13840176905E+02 0.13877097372E+02
 0.13920799989E+02 0.13957753415E+02 0.13978592239E+02 0.13978581872E+02 0.13957722143E+02
 0.13920747730E+02 0.13877025080E+02 0.13840087328E+02 0.13826126099E+02 0.13831577756E+02
 0.13816954007E+02 0.12473044392E+02 0.12470644536E+02 0.12345122538E+02 0.12051892788E+02
 0.11553753234E+02 0.10825150779E+02 0.98559521233E+01 0.86543229631E+01 0.72485015195E+01
 0.56873928269E+01 0.40398328277E+01 0.23920960819E+01 0.84301811609E+00 -.50369740358E+00
 -.15497022052E+01 -.22134850082E+01 -.24410408040E+01 -.22134533877E+01 -.15496401367E+01
 -.50360738169E+00 0.84313215776E+00 0.23922289083E+01 0.40399783916E+01 0.56875450084E+01
 0.72486548904E+01 0.86544733586E+01 0.98560969062E+01 0.10825288798E+02 0.11553884542E+02
 0.12052018205E+02 0.12345243100E+02 0.12470760903E+02 0.12473156304E+02 0.12400084125E+02
 0.12298251447E+02 0.12209863122E+02 0.12159043520E+02 0.12136259258E+02 0.12128993711E+02
 0.12128187627E+02 0.12128496517E+02 0.12128170772E+02 0.12128959156E+02 0.12136206251E+02
 0.12158972655E+02 0.12209777091E+02 0.12298153948E+02 0.12399978144E+02 0.11196976244E+02
 0.11350908484E+02 0.11428297028E+02 0.11382621319E+02 0.11168348551E+02 0.10745006691E+02
 0.10082199859E+02 0.91650493075E+01 0.79992775370E+01 0.66150403019E+01 0.50686117506E+01
 0.34411141372E+01 0.18337135754E+01 0.35918667553E+00 -.86949305213E+00 -.17520846930E+01
 -.22134850112E+01 -.22134693746E+01 -.17520379209E+01 -.86941589254E+00 0.35929209543E+00
 0.18338430893E+01 0.34412614888E+01 0.50687693062E+01 0.66152002847E+01 0.79994333273E+01
 0.91651963880E+01 0.10082336182E+02 0.10745132453E+02 0.11168465520E+02 0.11382731889E+02
 0.11428403235E+02 0.11351011176E+02 0.11197074632E+02 0.11011117188E+02 0.10833579546E+02
 0.10697316136E+02 0.10606129537E+02 0.10548143185E+02 0.10514248110E+02 0.10498664086E+02