   4   4   1   0
  0.1208073E+02  0.3247505E-09  0.3247506E-09  0.5290818E-09  0.5000000E-15
  1.000000000000000E-004
  CAR 
 unknown system                          
     17.27600754    -14.35714927  301      2.57058955      1.00000000
    -14.357  0.0000E+00  0.0000E+00
    -14.252  0.0000E+00  0.0000E+00
    -14.146  0.0000E+00  0.0000E+00
    -14.041  0.0000E+00  0.0000E+00
    -13.935  0.0000E+00  0.0000E+00
    -13.830  0.0000E+00  0.0000E+00
    -13.724  0.0000E+00  0.0000E+00
    -13.619  0.0000E+00  0.0000E+00
    -13.514  0.0000E+00  0.0000E+00
    -13.408  0.0000E+00  0.0000E+00
    -13.303  0.0000E+00  0.0000E+00
    -13.197 -0.1864E-53 -0.1965E-54
    -13.092 -0.1185E-20 -0.1250E-21
    -12.986 -0.1451E-03 -0.1529E-04
    -12.881  0.3043E+00  0.3207E-01
    -12.775 -0.7754E-02  0.3125E-01
    -12.670  0.6035E+00  0.9489E-01
    -12.565 -0.1079E-01  0.9375E-01
    -12.459 -0.1596E-60  0.9375E-01
    -12.354 -0.8102E-25  0.9375E-01
    -12.248 -0.9351E-05  0.9375E-01
    -12.143  0.1734E+01  0.2766E+00
    -12.037  0.6499E+00  0.3451E+00
    -11.932  0.3654E+01  0.7304E+00
    -11.826 -0.1101E+00  0.7188E+00
    -11.721  0.0000E+00  0.7188E+00
    -11.616 -0.8805E-31  0.7188E+00
    -11.510 -0.2211E-07  0.7187E+00
    -11.405  0.1341E+01  0.8601E+00
    -11.299  0.2215E+01  0.1094E+01
    -11.194  0.6108E+00  0.1158E+01
    -11.088 -0.1785E-01  0.1156E+01
    -10.983  0.5159E+00  0.1211E+01
    -10.878  0.1476E+01  0.1366E+01
    -10.772  0.4839E+01  0.1876E+01
    -10.667  0.5148E+01  0.2419E+01
    -10.561 -0.2045E+00  0.2398E+01
    -10.456  0.5467E+01  0.2974E+01
    -10.350  0.2077E+00  0.2996E+01
    -10.245  0.1554E+01  0.3160E+01
    -10.139  0.5427E+01  0.3732E+01
    -10.034  0.1187E+01  0.3857E+01
     -9.929  0.1353E+01  0.4000E+01
     -9.823  0.0000E+00  0.4000E+01
     -9.718  0.0000E+00  0.4000E+01
     -9.612  0.0000E+00  0.4000E+01
     -9.507  0.0000E+00  0.4000E+01
     -9.401  0.0000E+00  0.4000E+01
     -9.296  0.0000E+00  0.4000E+01
     -9.190  0.0000E+00  0.4000E+01
     -9.085  0.0000E+00  0.4000E+01
     -8.980  0.0000E+00  0.4000E+01
     -8.874  0.0000E+00  0.4000E+01
     -8.769  0.0000E+00  0.4000E+01
     -8.663  0.0000E+00  0.4000E+01
     -8.558  0.0000E+00  0.4000E+01
     -8.452  0.0000E+00  0.4000E+01
     -8.347  0.0000E+00  0.4000E+01
     -8.241  0.0000E+00  0.4000E+01
     -8.136  0.0000E+00  0.4000E+01
     -8.031  0.0000E+00  0.4000E+01
     -7.925  0.0000E+00  0.4000E+01
     -7.820  0.0000E+00  0.4000E+01
     -7.714  0.0000E+00  0.4000E+01
     -7.609  0.0000E+00  0.4000E+01
     -7.503  0.0000E+00  0.4000E+01
     -7.398  0.0000E+00  0.4000E+01
     -7.292  0.0000E+00  0.4000E+01
     -7.187  0.0000E+00  0.4000E+01
     -7.082  0.0000E+00  0.4000E+01
     -6.976  0.0000E+00  0.4000E+01
     -6.871  0.0000E+00  0.4000E+01
     -6.765  0.0000E+00  0.4000E+01
     -6.660  0.0000E+00  0.4000E+01
     -6.554  0.0000E+00  0.4000E+01
     -6.449  0.0000E+00  0.4000E+01
     -6.343  0.0000E+00  0.4000E+01
     -6.238  0.0000E+00  0.4000E+01
     -6.133  0.0000E+00  0.4000E+01
     -6.027  0.0000E+00  0.4000E+01
     -5.922  0.0000E+00  0.4000E+01
     -5.816  0.0000E+00  0.4000E+01
     -5.711  0.0000E+00  0.4000E+01
     -5.605  0.0000E+00  0.4000E+01
     -5.500  0.0000E+00  0.4000E+01
     -5.394  0.0000E+00  0.4000E+01
     -5.289  0.0000E+00  0.4000E+01
     -5.184  0.0000E+00  0.4000E+01
     -5.078  0.0000E+00  0.4000E+01
     -4.973  0.0000E+00  0.4000E+01
     -4.867  0.0000E+00  0.4000E+01
     -4.762  0.0000E+00  0.4000E+01
     -4.656  0.0000E+00  0.4000E+01
     -4.551  0.0000E+00  0.4000E+01
     -4.445  0.0000E+00  0.4000E+01
     -4.340 -0.2384E-39  0.4000E+01
     -4.235 -0.2147E-12  0.4000E+01
     -4.129 -0.9733E-02  0.3999E+01
     -4.024  0.3061E+00  0.4031E+01
     -3.918 -0.9686E-03  0.4031E+01
     -3.813  0.1821E+01  0.4223E+01
     -3.707  0.1760E+01  0.4409E+01
     -3.602  0.8959E+00  0.4503E+01
     -3.496 -0.2965E-01  0.4500E+01
     -3.391 -0.6217E-01  0.4493E+01
     -3.286  0.1836E+01  0.4687E+01
     -3.180  0.6492E+01  0.5372E+01
     -3.075  0.2717E+01  0.5658E+01
     -2.969  0.2721E+00  0.5687E+01
     -2.864  0.5433E+01  0.6260E+01
     -2.758 -0.9156E-01  0.6250E+01
     -2.653  0.3674E+01  0.6637E+01
     -2.547  0.1331E+00  0.6651E+01
     -2.442  0.6185E+00  0.6717E+01
     -2.337  0.1803E+01  0.6907E+01
     -2.231 -0.4046E-02  0.6906E+01
     -2.126 -0.1455E-13  0.6906E+01
     -2.020 -0.8559E-01  0.6897E+01
     -1.915  0.3644E+01  0.7281E+01
     -1.809 -0.2160E-02  0.7281E+01
     -1.704  0.0000E+00  0.7281E+01
     -1.598 -0.1080E-32  0.7281E+01
     -1.493 -0.1215E-08  0.7281E+01
     -1.388  0.2156E+00  0.7304E+01
     -1.282  0.5832E+00  0.7365E+01
     -1.177  0.4642E+01  0.7855E+01
     -1.071  0.8580E+01  0.8760E+01
     -0.966 -0.9143E-01  0.8750E+01
     -0.860 -0.1255E-41  0.8750E+01
     -0.755 -0.3400E-13  0.8750E+01
     -0.649 -0.9780E-01  0.8740E+01
     -0.544  0.5619E+01  0.9332E+01
     -0.439  0.3370E+01  0.9688E+01
     -0.333  0.1356E+01  0.9830E+01
     -0.228  0.3978E+01  0.1025E+02
     -0.122 -0.3520E-05  0.1025E+02
     -0.017 -0.5928E-02  0.1025E+02
      0.089  0.8991E+00  0.1034E+02
      0.194  0.9800E+00  0.1045E+02
      0.300  0.4352E+01  0.1091E+02
      0.405 -0.1820E-02  0.1091E+02
      0.510  0.7607E+00  0.1099E+02
      0.616  0.4890E+01  0.1150E+02
      0.721  0.1453E+01  0.1166E+02
      0.827  0.6265E+01  0.1232E+02
      0.932  0.3620E+01  0.1270E+02
      1.038  0.3709E+01  0.1309E+02
      1.143  0.2121E+01  0.1331E+02
      1.249  0.3674E+01  0.1370E+02
      1.354  0.2195E+01  0.1393E+02
      1.459  0.3022E+01  0.1425E+02
      1.565 -0.2123E-01  0.1425E+02
      1.670  0.1403E+01  0.1440E+02
      1.776  0.4861E+01  0.1491E+02
      1.881  0.3487E+01  0.1528E+02
      1.987  0.1829E+01  0.1547E+02
      2.092  0.2019E+01  0.1568E+02
      2.198  0.9449E+00  0.1578E+02
      2.303 -0.9083E-07  0.1578E+02
      2.408  0.7518E+00  0.1586E+02
      2.514  0.5254E+00  0.1592E+02
      2.619  0.7976E+00  0.1600E+02
      2.725 -0.1808E-03  0.1600E+02
      2.830  0.0000E+00  0.1600E+02
      2.936  0.0000E+00  0.1600E+02
      3.041  0.0000E+00  0.1600E+02
      3.147  0.0000E+00  0.1600E+02
      3.252  0.0000E+00  0.1600E+02
      3.357  0.0000E+00  0.1600E+02
      3.463  0.0000E+00  0.1600E+02
      3.568  0.0000E+00  0.1600E+02
      3.674  0.0000E+00  0.1600E+02
      3.779  0.0000E+00  0.1600E+02
      3.885 -0.6926E-45  0.1600E+02
      3.990 -0.1627E-15  0.1600E+02
      4.096 -0.4821E-02  0.1600E+02
      4.201  0.3016E+00  0.1603E+02
      4.306 -0.4026E-03  0.1603E+02
      4.412  0.0000E+00  0.1603E+02
      4.517  0.0000E+00  0.1603E+02
      4.623  0.0000E+00  0.1603E+02
      4.728  0.0000E+00  0.1603E+02
      4.834  0.0000E+00  0.1603E+02
      4.939  0.0000E+00  0.1603E+02
      5.045  0.0000E+00  0.1603E+02
      5.150 -0.6697E-39  0.1603E+02
      5.255 -0.5175E-12  0.1603E+02
      5.361 -0.1892E-01  0.1603E+02
      5.466  0.6117E+00  0.1609E+02
      5.572 -0.2607E-04  0.1609E+02
      5.677  0.0000E+00  0.1609E+02
      5.783  0.0000E+00  0.1609E+02
      5.888  0.0000E+00  0.1609E+02
      5.994  0.0000E+00  0.1609E+02
      6.099  0.0000E+00  0.1609E+02
      6.204 -0.1295E-61  0.1609E+02
      6.310 -0.1098E-25  0.1609E+02
      6.415 -0.2282E-05  0.1609E+02
      6.521  0.7828E+00  0.1618E+02
      6.626  0.2392E+01  0.1643E+02
      6.732  0.5593E+01  0.1702E+02
      6.837  0.1637E+01  0.1719E+02
      6.943 -0.3185E-01  0.1719E+02
      7.048  0.0000E+00  0.1719E+02
      7.153  0.0000E+00  0.1719E+02
      7.259 -0.1360E-40  0.1719E+02
      7.364 -0.7132E-13  0.1719E+02
      7.470 -0.3881E-01  0.1718E+02
      7.575  0.5167E+01  0.1773E+02
      7.681  0.1095E+01  0.1784E+02
      7.786 -0.3105E-01  0.1784E+02
      7.892  0.9202E+00  0.1794E+02
      7.997 -0.6280E-04  0.1794E+02
      8.102 -0.1310E-05  0.1794E+02
      8.208  0.2938E+01  0.1825E+02
      8.313  0.6292E+01  0.1891E+02
      8.419  0.4996E+01  0.1944E+02
      8.524  0.2553E+01  0.1971E+02
      8.630  0.1893E+01  0.1991E+02
      8.735 -0.1198E-06  0.1991E+02
      8.840  0.1104E+01  0.2002E+02
      8.946  0.6742E+00  0.2009E+02
      9.051  0.0000E+00  0.2009E+02
      9.157  0.0000E+00  0.2009E+02
      9.262  0.0000E+00  0.2009E+02
      9.368 -0.5007E-50  0.2009E+02
      9.473 -0.3906E-18  0.2009E+02
      9.579 -0.5433E-02  0.2009E+02
      9.684  0.3616E+01  0.2047E+02
      9.789  0.1737E+01  0.2066E+02
      9.895  0.1645E+01  0.2083E+02
     10.000  0.3639E+01  0.2121E+02
     10.106  0.5462E+01  0.2179E+02
     10.211  0.3557E+01  0.2217E+02
     10.317  0.8850E+01  0.2310E+02
     10.422 -0.4853E-01  0.2309E+02
     10.528  0.2306E+01  0.2334E+02
     10.633  0.1250E+01  0.2347E+02
     10.738 -0.3647E-01  0.2346E+02
     10.844  0.1483E+01  0.2362E+02
     10.949  0.1814E+01  0.2381E+02
     11.055 -0.7493E-02  0.2381E+02
     11.160  0.6014E+00  0.2388E+02
     11.266  0.2604E+01  0.2415E+02
     11.371  0.4202E+01  0.2459E+02
     11.477  0.4185E+00  0.2464E+02
     11.582  0.1826E+00  0.2466E+02
     11.687 -0.8956E-01  0.2465E+02
     11.793  0.3629E+01  0.2503E+02
     11.898  0.2298E+01  0.2527E+02
     12.004  0.9075E-01  0.2528E+02
     12.109 -0.1049E+00  0.2527E+02
     12.215  0.4176E+01  0.2571E+02
     12.320  0.6630E+01  0.2641E+02
     12.426  0.1766E+01  0.2660E+02
     12.531  0.1658E+01  0.2677E+02
     12.636  0.2717E+01  0.2706E+02
     12.742  0.2184E+01  0.2729E+02
     12.847 -0.5841E-01  0.2728E+02
     12.953 -0.3977E-01  0.2728E+02
     13.058  0.2024E+01  0.2749E+02
     13.164  0.5554E+01  0.2808E+02
     13.269  0.7016E+01  0.2882E+02
     13.375 -0.3264E-01  0.2881E+02
     13.480  0.1220E+01  0.2894E+02
     13.585 -0.3415E-01  0.2894E+02
     13.691  0.9907E+00  0.2904E+02
     13.796  0.7391E+00  0.2912E+02
     13.902  0.3651E+01  0.2950E+02
     14.007  0.4103E+01  0.2994E+02
     14.113 -0.2026E-03  0.2994E+02
     14.218 -0.4998E-24  0.2994E+02
     14.324 -0.2038E-04  0.2994E+02
     14.429  0.1787E+01  0.3013E+02
     14.534  0.3445E+01  0.3049E+02
     14.640 -0.5559E-02  0.3049E+02
     14.745  0.4563E+01  0.3097E+02
     14.851  0.1331E+01  0.3111E+02
     14.956  0.4372E+00  0.3116E+02
     15.062  0.0000E+00  0.3116E+02
     15.167 -0.4803E-28  0.3116E+02
     15.273 -0.2251E-06  0.3116E+02
     15.378  0.6700E+00  0.3123E+02
     15.483  0.2191E+00  0.3125E+02
     15.589  0.1710E+01  0.3143E+02
     15.694  0.3751E+01  0.3183E+02
     15.800 -0.1723E+00  0.3181E+02
     15.905  0.1826E+01  0.3200E+02
     16.011 -0.8703E-03  0.3200E+02
     16.116  0.0000E+00  0.3200E+02
     16.222  0.0000E+00  0.3200E+02
     16.327  0.0000E+00  0.3200E+02
     16.432  0.0000E+00  0.3200E+02
     16.538  0.0000E+00  0.3200E+02
     16.643  0.0000E+00  0.3200E+02
     16.749  0.0000E+00  0.3200E+02
     16.854  0.0000E+00  0.3200E+02
     16.960  0.0000E+00  0.3200E+02
     17.065  0.0000E+00  0.3200E+02
     17.171  0.0000E+00  0.3200E+02
     17.276  0.0000E+00  0.3200E+02
     17.27600754    -14.35714927  301      2.57058955      1.00000000
    -14.357  0.0000E+00  0.0000E+00  0.0000E+00  0.0000E+00  0.0000E+00  0.0000E+00  0.0000E+00  0.0000E+00  0.0000E+00
    -14.252  0.0000E+00  0.0000E+00  0.0000E+00  0.0000E+00  0.0000E+00  0.0000E+00  0.0000E+00  0.0000E+00  0.0000E+00
    -14.146  0.0000E+00  0.0000E+00  0.0000E+00  0.0000E+00  0.0000E+00  0.0000E+00  0.0000E+00  0.0000E+00  0.0000E+00
    -14.041  0.0000E+00  0.0000E+00  0.0000E+00  0.0000E+00  0.0000E+00  0.0000E+00  0.0000E+00  0.0000E+00  0.0000E+00
    -13.935  0.0000E+00  0.0000E+00  0.0000E+00  0.0000E+00  0.0000E+00  0.0000E+00  0.0000E+00  0.0000E+00  0.0000E+00
    -13.830  0.0000E+00  0.0000E+00  0.0000E+00  0.0000E+00  0.0000E+00  0.0000E+00  0.0000E+00  0.0000E+00  0.0000E+00
    -13.724  0.0000E+00  0.0000E+00  0.0000E+00  0.0000E+00  0.0000E+00  0.0000E+00  0.0000E+00  0.0000E+00  0.0000E+00
    -13.619  0.0000E+00  0.0000E+00  0.0000E+00  0.0000E+00  0.0000E+00  0.0000E+00  0.0000E+00  0.0000E+00  0.0000E+00
    -13.514  0.0000E+00  0.0000E+00  0.0000E+00  0.0000E+00  0.0000E+00  0.0000E+00  0.0000E+00  0.0000E+00  0.0000E+00
    -13.408  0.0000E+00  0.0000E+00  0.0000E+00  0.0000E+00  0.0000E+00  0.0000E+00  0.0000E+00  0.0000E+00  0.0000E+00
    -13.303  0.0000E+00  0.0000E+00  0.0000E+00  0.0000E+00  0.0000E+00  0.0000E+00  0.0000E+00  0.0000E+00  0.0000E+00
    -13.197 -0.3141E-54 -0.1465E-65 -0.4870E-59 -0.4609E-65 -0.3062E-65 -0.1545E-66 -0.1486E-59 -0.4885E-66 -0.1001E-65
    -13.092 -0.1997E-21 -0.9317E-33 -0.3097E-26 -0.2931E-32 -0.1947E-32 -0.9827E-34 -0.9446E-27 -0.3106E-33 -0.6367E-33
    -12.986 -0.2445E-04 -0.1140E-15 -0.3790E-09 -0.3587E-15 -0.2383E-15 -0.1203E-16 -0.1156E-09 -0.3802E-16 -0.7793E-16
    -12.881  0.5128E-01  0.2392E-12  0.7950E-06  0.7525E-12  0.4998E-12  0.2523E-13  0.2425E-06  0.7974E-13  0.1635E-12
    -12.775 -0.1307E-02 -0.6096E-14 -0.9452E-07 -0.1918E-13 -0.1274E-13 -0.6431E-15 -0.1623E-07 -0.2033E-14 -0.4166E-14
    -12.670  0.9546E-01  0.4751E-12  0.4078E-02  0.1495E-11  0.1015E-11  0.5746E-13  0.5519E-03  0.1814E-12  0.3320E-12
    -12.565 -0.1706E-02 -0.8493E-14 -0.7289E-04 -0.2672E-13 -0.1814E-13 -0.1027E-14 -0.9865E-05 -0.3242E-14 -0.5934E-14
    -12.459 -0.2120E-61 -0.8698E-63 -0.3866E-64 -0.2609E-62 -0.3136E-63 -0.4211E-64 -0.3001E-64 -0.1263E-63 -0.1045E-63
    -12.354 -0.1076E-25 -0.4416E-27 -0.1963E-28 -0.1325E-26 -0.1592E-27 -0.2138E-28 -0.1524E-28 -0.6412E-28 -0.5307E-28
    -12.248 -0.1242E-05 -0.5096E-07 -0.2265E-08 -0.1529E-06 -0.1837E-07 -0.2467E-08 -0.1758E-08 -0.7400E-08 -0.6124E-08
    -12.143  0.2303E+00  0.9448E-02  0.4196E-03  0.2834E-01  0.3406E-02  0.4574E-03  0.3260E-03  0.1372E-02  0.1135E-02
    -12.037  0.8352E-01  0.2416E-03  0.1459E-01  0.7249E-03  0.8709E-04  0.1169E-04  0.2640E-02  0.3506E-04  0.2903E-04
    -11.932  0.4481E+00  0.1971E-01  0.2232E-01  0.5914E-01  0.7817E-02  0.1204E-02  0.3211E-02  0.3611E-02  0.2606E-02
    -11.826 -0.1350E-01 -0.5918E-03 -0.6792E-03 -0.1775E-02 -0.2346E-03 -0.3614E-04 -0.9805E-04 -0.1084E-03 -0.7822E-04
    -11.721  0.0000E+00  0.0000E+00  0.0000E+00  0.0000E+00  0.0000E+00  0.0000E+00  0.0000E+00  0.0000E+00  0.0000E+00
    -11.616 -0.8093E-32 -0.4940E-33 -0.1897E-32 -0.1482E-32 -0.2036E-33 -0.3873E-34 -0.3332E-33 -0.1162E-33 -0.6788E-34
    -11.510 -0.2033E-08 -0.1241E-09 -0.4761E-09 -0.3723E-09 -0.5116E-10 -0.9730E-11 -0.8365E-10 -0.2919E-10 -0.1705E-10
    -11.405  0.1233E+00  0.7531E-02  0.2887E-01  0.2259E-01  0.3104E-02  0.5904E-03  0.5073E-02  0.1771E-02  0.1035E-02
    -11.299  0.2038E+00  0.1245E-01  0.4769E-01  0.3734E-01  0.5131E-02  0.9757E-03  0.8380E-02  0.2927E-02  0.1710E-02
    -11.194  0.5162E-01  0.5167E-12  0.2668E-01  0.1628E-11  0.1328E-11  0.1248E-12  0.6915E-02  0.3915E-12  0.4354E-12
    -11.088 -0.1509E-02 -0.1400E-09 -0.7795E-03 -0.7227E-10 -0.1497E-10 -0.8768E-11 -0.2021E-03 -0.5094E-11 -0.2155E-10
    -10.983  0.3567E-01  0.1682E-01  0.1631E-02  0.8683E-02  0.1795E-02  0.1054E-02  0.9097E-03  0.6110E-03  0.2590E-02
    -10.878  0.1017E+00  0.4105E-01  0.4196E-02  0.3133E-01  0.6468E-02  0.2603E-02  0.2667E-02  0.2223E-02  0.6543E-02
    -10.772  0.2865E+00  0.1341E+00  0.4504E-01  0.9639E-01  0.2063E-01  0.8958E-02  0.1276E-01  0.7740E-02  0.2110E-01
    -10.667  0.2617E+00  0.3949E-01  0.1539E+00  0.1185E+00  0.1975E-01  0.3455E-02  0.4019E-01  0.1037E-01  0.6583E-02
    -10.561 -0.8882E-02 -0.3447E-02 -0.6050E-02 -0.3766E-02 -0.6256E-03 -0.2974E-03 -0.1473E-02 -0.3456E-03 -0.5651E-03
    -10.456  0.1793E+00  0.1466E+00  0.9731E-01  0.1401E+00  0.2658E-01  0.1228E-01  0.1901E-01  0.1192E-01  0.2511E-01
    -10.350  0.5144E-02  0.8781E-03  0.1025E-01  0.2844E-02  0.4420E-03  0.1202E-03  0.3401E-02  0.3780E-03  0.1359E-03
    -10.245  0.3948E-01  0.1005E-01  0.6620E-01  0.3022E-01  0.4944E-02  0.1110E-02  0.2118E-01  0.3337E-02  0.1644E-02
    -10.139  0.4915E-01  0.1527E+00  0.1248E+00  0.1548E+00  0.2555E-01  0.1454E-01  0.3470E-01  0.1289E-01  0.2780E-01
    -10.034 -0.4060E-03  0.2542E-01  0.2645E-01  0.4890E-01  0.6956E-02  0.2163E-02  0.9511E-02  0.3900E-02  0.3974E-02
     -9.929  0.6727E-04  0.4840E-01  0.3222E-01  0.2782E-01  0.5389E-02  0.4637E-02  0.1143E-01  0.2598E-02  0.8990E-02
     -9.823  0.0000E+00  0.0000E+00  0.0000E+00  0.0000E+00  0.0000E+00  0.0000E+00  0.0000E+00  0.0000E+00  0.0000E+00
     -9.718  0.0000E+00  0.0000E+00  0.0000E+00  0.0000E+00  0.0000E+00  0.0000E+00  0.0000E+00  0.0000E+00  0.0000E+00
     -9.612  0.0000E+00  0.0000E+00  0.0000E+00  0.0000E+00  0.0000E+00  0.0000E+00  0.0000E+00  0.0000E+00  0.0000E+00
     -9.507  0.0000E+00  0.0000E+00  0.0000E+00  0.0000E+00  0.0000E+00  0.0000E+00  0.0000E+00  0.0000E+00  0.0000E+00
     -9.401  0.0000E+00  0.0000E+00  0.0000E+00  0.0000E+00  0.0000E+00  0.0000E+00  0.0000E+00  0.0000E+00  0.0000E+00
     -9.296  0.0000E+00  0.0000E+00  0.0000E+00  0.0000E+00  0.0000E+00  0.0000E+00  0.0000E+00  0.0000E+00  0.0000E+00
     -9.190  0.0000E+00  0.0000E+00  0.0000E+00  0.0000E+00  0.0000E+00  0.0000E+00  0.0000E+00  0.0000E+00  0.0000E+00
     -9.085  0.0000E+00  0.0000E+00  0.0000E+00  0.0000E+00  0.0000E+00  0.0000E+00  0.0000E+00  0.0000E+00  0.0000E+00
     -8.980  0.0000E+00  0.0000E+00  0.0000E+00  0.0000E+00  0.0000E+00  0.0000E+00  0.0000E+00  0.0000E+00  0.0000E+00
     -8.874  0.0000E+00  0.0000E+00  0.0000E+00  0.0000E+00  0.0000E+00  0.0000E+00  0.0000E+00  0.0000E+00  0.0000E+00
     -8.769  0.0000E+00  0.0000E+00  0.0000E+00  0.0000E+00  0.0000E+00  0.0000E+00  0.0000E+00  0.0000E+00  0.0000E+00
     -8.663  0.0000E+00  0.0000E+00  0.0000E+00  0.0000E+00  0.0000E+00  0.0000E+00  0.0000E+00  0.0000E+00  0.0000E+00
     -8.558  0.0000E+00  0.0000E+00  0.0000E+00  0.0000E+00  0.0000E+00  0.0000E+00  0.0000E+00  0.0000E+00  0.0000E+00
     -8.452  0.0000E+00  0.0000E+00  0.0000E+00  0.0000E+00  0.0000E+00  0.0000E+00  0.0000E+00  0.0000E+00  0.0000E+00
     -8.347  0.0000E+00  0.0000E+00  0.0000E+00  0.0000E+00  0.0000E+00  0.0000E+00  0.0000E+00  0.0000E+00  0.0000E+00
     -8.241  0.0000E+00  0.0000E+00  0.0000E+00  0.0000E+00  0.0000E+00  0.0000E+00  0.0000E+00  0.0000E+00  0.0000E+00
     -8.136  0.0000E+00  0.0000E+00  0.0000E+00  0.0000E+00  0.0000E+00  0.0000E+00  0.0000E+00  0.0000E+00  0.0000E+00
     -8.031  0.0000E+00  0.0000E+00  0.0000E+00  0.0000E+00  0.0000E+00  0.0000E+00  0.0000E+00  0.0000E+00  0.0000E+00
     -7.925  0.0000E+00  0.0000E+00  0.0000E+00  0.0000E+00  0.0000E+00  0.0000E+00  0.0000E+00  0.0000E+00  0.0000E+00
     -7.820  0.0000E+00  0.0000E+00  0.0000E+00  0.0000E+00  0.0000E+00  0.0000E+00  0.0000E+00  0.0000E+00  0.0000E+00
     -7.714  0.0000E+00  0.0000E+00  0.0000E+00  0.0000E+00  0.0000E+00  0.0000E+00  0.0000E+00  0.0000E+00  0.0000E+00
     -7.609  0.0000E+00  0.0000E+00  0.0000E+00  0.0000E+00  0.0000E+00  0.0000E+00  0.0000E+00  0.0000E+00  0.0000E+00
     -7.503  0.0000E+00  0.0000E+00  0.0000E+00  0.0000E+00  0.0000E+00  0.0000E+00  0.0000E+00  0.0000E+00  0.0000E+00
     -7.398  0.0000E+00  0.0000E+00  0.0000E+00  0.0000E+00  0.0000E+00  0.0000E+00  0.0000E+00  0.0000E+00  0.0000E+00
     -7.292  0.0000E+00  0.0000E+00  0.0000E+00  0.0000E+00  0.0000E+00  0.0000E+00  0.0000E+00  0.0000E+00  0.0000E+00
     -7.187  0.0000E+00  0.0000E+00  0.0000E+00  0.0000E+00  0.0000E+00  0.0000E+00  0.0000E+00  0.0000E+00  0.0000E+00
     -7.082  0.0000E+00  0.0000E+00  0.0000E+00  0.0000E+00  0.0000E+00  0.0000E+00  0.0000E+00  0.0000E+00  0.0000E+00
     -6.976  0.0000E+00  0.0000E+00  0.0000E+00  0.0000E+00  0.0000E+00  0.0000E+00  0.0000E+00  0.0000E+00  0.0000E+00
     -6.871  0.0000E+00  0.0000E+00  0.0000E+00  0.0000E+00  0.0000E+00  0.0000E+00  0.0000E+00  0.0000E+00  0.0000E+00
     -6.765  0.0000E+00  0.0000E+00  0.0000E+00  0.0000E+00  0.0000E+00  0.0000E+00  0.0000E+00  0.0000E+00  0.0000E+00
     -6.660  0.0000E+00  0.0000E+00  0.0000E+00  0.0000E+00  0.0000E+00  0.0000E+00  0.0000E+00  0.0000E+00  0.0000E+00
     -6.554  0.0000E+00  0.0000E+00  0.0000E+00  0.0000E+00  0.0000E+00  0.0000E+00  0.0000E+00  0.0000E+00  0.0000E+00
     -6.449  0.0000E+00  0.0000E+00  0.0000E+00  0.0000E+00  0.0000E+00  0.0000E+00  0.0000E+00  0.0000E+00  0.0000E+00
     -6.343  0.0000E+00  0.0000E+00  0.0000E+00  0.0000E+00  0.0000E+00  0.0000E+00  0.0000E+00  0.0000E+00  0.0000E+00
     -6.238  0.0000E+00  0.0000E+00  0.0000E+00  0.0000E+00  0.0000E+00  0.0000E+00  0.0000E+00  0.0000E+00  0.0000E+00
     -6.133  0.0000E+00  0.0000E+00  0.0000E+00  0.0000E+00  0.0000E+00  0.0000E+00  0.0000E+00  0.0000E+00  0.0000E+00
     -6.027  0.0000E+00  0.0000E+00  0.0000E+00  0.0000E+00  0.0000E+00  0.0000E+00  0.0000E+00  0.0000E+00  0.0000E+00
     -5.922  0.0000E+00  0.0000E+00  0.0000E+00  0.0000E+00  0.0000E+00  0.0000E+00  0.0000E+00  0.0000E+00  0.0000E+00
     -5.816  0.0000E+00  0.0000E+00  0.0000E+00  0.0000E+00  0.0000E+00  0.0000E+00  0.0000E+00  0.0000E+00  0.0000E+00
     -5.711  0.0000E+00  0.0000E+00  0.0000E+00  0.0000E+00  0.0000E+00  0.0000E+00  0.0000E+00  0.0000E+00  0.0000E+00
     -5.605  0.0000E+00  0.0000E+00  0.0000E+00  0.0000E+00  0.0000E+00  0.0000E+00  0.0000E+00  0.0000E+00  0.0000E+00
     -5.500  0.0000E+00  0.0000E+00  0.0000E+00  0.0000E+00  0.0000E+00  0.0000E+00  0.0000E+00  0.0000E+00  0.0000E+00
     -5.394  0.0000E+00  0.0000E+00  0.0000E+00  0.0000E+00  0.0000E+00  0.0000E+00  0.0000E+00  0.0000E+00  0.0000E+00
     -5.289  0.0000E+00  0.0000E+00  0.0000E+00  0.0000E+00  0.0000E+00  0.0000E+00  0.0000E+00  0.0000E+00  0.0000E+00
     -5.184  0.0000E+00  0.0000E+00  0.0000E+00  0.0000E+00  0.0000E+00  0.0000E+00  0.0000E+00  0.0000E+00  0.0000E+00
     -5.078  0.0000E+00  0.0000E+00  0.0000E+00  0.0000E+00  0.0000E+00  0.0000E+00  0.0000E+00  0.0000E+00  0.0000E+00
     -4.973  0.0000E+00  0.0000E+00  0.0000E+00  0.0000E+00  0.0000E+00  0.0000E+00  0.0000E+00  0.0000E+00  0.0000E+00
     -4.867  0.0000E+00  0.0000E+00  0.0000E+00  0.0000E+00  0.0000E+00  0.0000E+00  0.0000E+00  0.0000E+00  0.0000E+00
     -4.762  0.0000E+00  0.0000E+00  0.0000E+00  0.0000E+00  0.0000E+00  0.0000E+00  0.0000E+00  0.0000E+00  0.0000E+00
     -4.656  0.0000E+00  0.0000E+00  0.0000E+00  0.0000E+00  0.0000E+00  0.0000E+00  0.0000E+00  0.0000E+00  0.0000E+00
     -4.551  0.0000E+00  0.0000E+00  0.0000E+00  0.0000E+00  0.0000E+00  0.0000E+00  0.0000E+00  0.0000E+00  0.0000E+00
     -4.445  0.0000E+00  0.0000E+00  0.0000E+00  0.0000E+00  0.0000E+00  0.0000E+00  0.0000E+00  0.0000E+00  0.0000E+00
     -4.340 -0.3673E-40 -0.3670E-52 -0.2133E-40 -0.1153E-51 -0.5075E-52 -0.9832E-53 -0.2323E-42 -0.3029E-52 -0.1603E-52
     -4.235 -0.3307E-13 -0.3305E-25 -0.1921E-13 -0.1038E-24 -0.4570E-25 -0.8854E-26 -0.2092E-15 -0.2728E-25 -0.1444E-25
     -4.129 -0.1500E-02 -0.1499E-14 -0.8710E-03 -0.4707E-14 -0.2072E-14 -0.4015E-15 -0.9487E-05 -0.1237E-14 -0.6545E-15
     -4.024  0.4716E-01  0.4713E-13  0.2739E-01  0.1481E-12  0.6518E-13  0.1263E-13  0.2984E-03  0.3890E-13  0.2059E-13
     -3.918 -0.1962E-03 -0.8801E-05 -0.9557E-05 -0.2640E-04 -0.2681E-05 -0.5030E-06 -0.8638E-07 -0.1509E-05 -0.8937E-06
     -3.813  0.3701E+00  0.1679E-01  0.1578E-01  0.5036E-01  0.5121E-02  0.9569E-03  0.1371E-03  0.2871E-02  0.1707E-02
     -3.707  0.3478E+00  0.1992E-01  0.6026E-02  0.5975E-01  0.2362E-02  0.2422E-02  0.5620E-03  0.7265E-02  0.7875E-03
     -3.602  0.1833E+00  0.5683E-02  0.1212E-01  0.1705E-01  0.3840E-02  0.2915E-04  0.1165E-02  0.8739E-04  0.1280E-02
     -3.496 -0.6062E-02 -0.1917E-03 -0.3937E-03 -0.5752E-03 -0.1250E-03 -0.1941E-05 -0.3783E-04 -0.5821E-05 -0.4166E-04
     -3.391 -0.1164E-01 -0.5729E-04 -0.3729E-02 -0.1719E-03 -0.2173E-04 -0.2741E-04 -0.1033E-04 -0.8224E-04 -0.7245E-05
     -3.286  0.3440E+00  0.1686E-02  0.1101E+00  0.5087E-02  0.6423E-03  0.8112E-03  0.2566E-03  0.2434E-02  0.2140E-03
     -3.180  0.1391E+01  0.1088E+00  0.6648E-01  0.4700E-01  0.1088E-01  0.9741E-02  0.1264E-01  0.1107E-01  0.1113E-01
     -3.075  0.5217E+00  0.3549E-01  0.1620E-01  0.6914E-01  0.2526E-02  0.7302E-02  0.2977E-02  0.1254E-01  0.4879E-02
     -2.969  0.4996E-01  0.2956E-02  0.2443E-02  0.8869E-02  0.1333E-03  0.6074E-03  0.1306E-03  0.1823E-02  0.4345E-04
     -2.864  0.1100E+01  0.8611E-02  0.1345E+00  0.2564E-01  0.1681E-01  0.3171E-02  0.2669E-01  0.8860E-02  0.6100E-02
     -2.758 -0.1772E-01 -0.1451E-03 -0.2531E-02 -0.4652E-03 -0.3103E-03 -0.6189E-04 -0.5020E-03 -0.1662E-03 -0.1140E-03
     -2.653  0.5728E+00  0.3921E-03  0.4066E-01  0.1578E+00  0.4568E-02  0.2050E-01  0.5551E-02  0.6427E-02  0.2261E-01
     -2.547  0.2733E-01  0.2230E-02  0.2123E-02  0.1716E-02 -0.1260E-03 -0.3347E-04 -0.5489E-04  0.1649E-02 -0.7119E-03
     -2.442  0.1143E+00  0.5287E-02  0.8443E-02  0.1622E-01 -0.4379E-05  0.1521E-02  0.2879E-03  0.4665E-02 -0.1229E-03
     -2.337  0.1878E+00  0.3917E-01  0.2569E-01  0.8675E-01  0.4607E-02  0.5179E-02  0.1982E-02  0.6643E-02  0.1206E-01
     -2.231 -0.4215E-03 -0.8790E-04 -0.5766E-04 -0.1947E-03 -0.1034E-04 -0.1162E-04 -0.4449E-05 -0.1491E-04 -0.2706E-04
     -2.126 -0.1989E-14 -0.1286E-15 -0.8794E-16 -0.3858E-15 -0.1181E-15 -0.2452E-16 -0.1733E-15 -0.7355E-16 -0.3937E-16
     -2.020 -0.1170E-01 -0.7565E-03 -0.5171E-03 -0.2269E-02 -0.6945E-03 -0.1443E-03 -0.1020E-02 -0.4327E-03 -0.2315E-03
     -1.915  0.4979E+00  0.3221E-01  0.2201E-01  0.9661E-01  0.2957E-01  0.6142E-02  0.4342E-01  0.1842E-01  0.9855E-02
     -1.809 -0.2950E-03 -0.1909E-04 -0.1304E-04 -0.5726E-04 -0.1752E-04 -0.3641E-05 -0.2575E-04 -0.1092E-04 -0.5840E-05
     -1.704  0.0000E+00  0.0000E+00  0.0000E+00  0.0000E+00  0.0000E+00  0.0000E+00  0.0000E+00  0.0000E+00  0.0000E+00
     -1.598 -0.5277E-34 -0.1375E-34 -0.9912E-34 -0.4124E-34 -0.2675E-35 -0.8406E-36 -0.1729E-35 -0.2522E-35 -0.8917E-36
     -1.493 -0.5934E-10 -0.1546E-10 -0.1115E-09 -0.4637E-10 -0.3008E-11 -0.9452E-12 -0.1944E-11 -0.2836E-11 -0.1003E-11
     -1.388  0.1053E-01  0.2743E-02  0.1978E-01  0.8229E-02  0.5338E-03  0.1677E-03  0.3451E-03  0.5032E-03  0.1779E-03
     -1.282  0.3041E-01  0.6111E-02  0.5586E-01  0.2115E-01  0.7271E-03  0.3934E-03  0.1194E-02  0.1492E-02  0.1183E-03
     -1.177  0.1832E+00  0.1245E+00  0.3156E+00  0.1721E+00  0.2988E-01  0.8289E-02  0.2224E-01  0.3662E-02  0.1643E-01
     -1.071  0.7003E+00  0.5084E+00  0.2451E-01  0.4921E+00  0.5746E-01  0.1346E-01  0.1893E-01  0.3304E-01  0.2639E-01
     -0.966 -0.1152E-01 -0.1942E-02 -0.4488E-03 -0.5791E-02 -0.1346E-02 -0.1287E-03 -0.4244E-03 -0.3861E-03 -0.4489E-03
     -0.860 -0.1286E-43 -0.8547E-43 -0.5578E-45 -0.1003E-42 -0.2839E-44 -0.6871E-44 -0.7275E-45 -0.9751E-44 -0.2849E-44
     -0.755 -0.3486E-15 -0.2317E-14 -0.1511E-16 -0.2720E-14 -0.7697E-16 -0.1862E-15 -0.1972E-16 -0.2642E-15 -0.7721E-16
     -0.649 -0.1003E-02 -0.6669E-02 -0.4347E-04 -0.7829E-02 -0.2215E-03 -0.5356E-03 -0.5677E-04 -0.7599E-03 -0.2222E-03
     -0.544  0.8576E-01  0.2662E+00  0.1505E+00  0.3433E+00  0.1850E-01  0.2243E-01  0.1482E-01  0.3563E-01  0.1171E-01
     -0.439  0.6404E-01  0.2709E-01  0.2385E+00  0.8144E-01  0.1918E-01  0.5322E-02  0.1852E-01  0.1598E-01  0.6392E-02
     -0.333  0.9051E-01  0.1160E-01  0.6143E-01  0.3296E-01  0.1627E-01  0.5002E-02  0.3602E-02  0.1076E-01  0.7152E-02
     -0.228  0.1333E+00  0.4228E-01  0.3305E+00  0.1144E+00  0.1866E-01  0.1317E-01  0.2226E-01  0.1065E-01  0.1796E-01
     -0.122 -0.5962E-07 -0.4105E-07 -0.3588E-06 -0.1091E-06 -0.3686E-08 -0.1099E-07 -0.2485E-07 -0.1977E-09 -0.1456E-07
     -0.017 -0.1462E-13 -0.7048E-03 -0.5901E-13 -0.2349E-03 -0.8924E-05 -0.1248E-04 -0.6761E-14 -0.4160E-05 -0.2677E-04
      0.089 -0.8048E-10  0.1069E+00 -0.1708E-10  0.3563E-01  0.1353E-02  0.1892E-02  0.3621E-12  0.6308E-03  0.4060E-02
      0.194  0.1026E-01  0.5748E-01  0.3230E-02  0.6142E-01  0.3819E-02  0.8627E-02  0.8230E-04  0.1379E-01  0.1793E-02
      0.300  0.2560E-01  0.3601E+00  0.8056E-02  0.2255E+00  0.1249E-01  0.3058E-01  0.2053E-03  0.3742E-01  0.1338E-01
      0.405 -0.3275E-08 -0.2066E-03 -0.5848E-07 -0.6890E-04 -0.2833E-05 -0.8664E-05 -0.9265E-08 -0.2894E-05 -0.8493E-05
      0.510  0.3469E-02  0.7748E-02  0.6197E-01  0.2326E-01  0.2484E-02  0.2426E-02  0.9817E-02  0.7282E-02  0.8279E-03
      0.616  0.5097E-01  0.1251E+00  0.2490E+00  0.1939E+00  0.3382E-01  0.2240E-01  0.4647E-01  0.3450E-01  0.1307E-01
      0.721  0.8585E-02  0.9124E-01  0.5039E-01  0.4181E-01  0.1049E-01  0.4476E-03  0.9438E-02  0.6726E-04  0.1651E-01
      0.827  0.3111E-01  0.3102E+00  0.2892E+00  0.1593E+00  0.2250E-01  0.3083E-01  0.6351E-01  0.1257E-01  0.3318E-01
      0.932 -0.1273E-02  0.3401E+00 -0.3611E-02  0.1127E+00  0.2022E-01  0.1716E-01 -0.1475E-02  0.5690E-02  0.6112E-01
      1.038  0.4573E-01  0.2237E-01  0.3064E+00  0.4871E-01  0.9910E-02  0.2952E-02  0.8518E-01  0.9844E-02  0.5713E-02
      1.143  0.1222E-01  0.2955E-01  0.2031E+00  0.1706E-01  0.5320E-02  0.2915E-03  0.3612E-01  0.1707E-03  0.8047E-02
      1.249  0.1222E-01  0.3726E-01  0.3015E+00  0.5928E-01  0.1615E-01  0.7957E-02  0.6687E-01  0.6758E-02  0.9667E-02
      1.354 -0.3901E-03  0.1807E+00 -0.9624E-02  0.5875E-01  0.9995E-02  0.2964E-01 -0.2135E-02  0.9750E-02  0.3122E-01
      1.459  0.5055E-11  0.2380E+00  0.1776E-10  0.7934E-01  0.1325E-01  0.4016E-01  0.6009E-11  0.1339E-01  0.3975E-01
      1.565 -0.2094E-12 -0.1021E-02 -0.1036E-12 -0.1003E-02 -0.4116E-03 -0.1929E-04 -0.5125E-13 -0.1377E-04 -0.4133E-03
      1.670 -0.2079E-04  0.9304E-01 -0.7983E-02  0.4946E-01  0.1263E-01  0.2028E-01 -0.4138E-02  0.6725E-02  0.1729E-01
      1.776  0.6213E-03  0.6220E-01  0.2385E+00  0.8579E-01  0.6346E-01  0.4687E-02  0.1237E+00  0.1059E-01  0.3718E-01
      1.881  0.3817E-03  0.2029E+00  0.6086E-02  0.6920E-01  0.2018E-01  0.5424E-01  0.5256E-02  0.1833E-01  0.6039E-01
      1.987  0.4884E-02  0.2083E-01  0.7806E-01  0.3367E-01  0.5232E-02  0.4192E-02  0.6735E-01  0.4878E-02  0.4616E-02
      2.092 -0.1158E-07  0.7915E-01 -0.1852E-06  0.5338E-01  0.3136E-01  0.2262E-01 -0.1598E-06  0.1220E-01  0.4160E-01