    4    4    1    1
  0.1208073E+02  0.3247505E-09  0.3247506E-09  0.5290818E-09  0.5000000E-15
  1.000000000000000E-004
  CAR 
 unknown system                          
   16   12   16
 
  0.0000000E+00  0.0000000E+00  0.0000000E+00  0.1562500E-01
   1      -12.919279
   2      -10.776683
   3       -4.101487
   4        1.596577
   5        1.596614
   6        2.517761
   7        2.549836
   8        2.549855
   9        4.139372
  10        6.509759
  11       11.480058
  12       12.196384
  13       12.196405
  14       12.968570
  15       13.908482
  16       13.908535
 
  0.2500000E+00 -0.6257863E-17  0.0000000E+00  0.9375000E-01
   1      -12.161484
   2      -10.338490
   3       -3.361739
   4       -1.252923
   5       -0.333295
   6        0.720414
   7        1.896630
   8        2.093722
   9        6.563955
  10        8.223111
  11        9.765983
  12       10.868039
  13       12.377807
  14       12.980800
  15       13.689224
  16       14.842866
 
  0.5000000E+00 -0.1251573E-16  0.0000000E+00  0.4687500E-01
   1      -10.873968
   2      -10.119704
   3       -3.629773
   4       -2.540704
   5       -1.379504
   6        0.034588
   7        0.498573
   8        1.632698
   9        7.502501
  10        7.815268
  11        8.520299
  12       10.771116
  13       12.602517
  14       12.713354
  15       14.696775
  16       15.370104
 
  0.2500000E+00  0.2500000E+00  0.0000000E+00  0.9375000E-01
   1      -10.976516
   2      -10.025784
   3       -2.909969
   4       -2.395106
   5       -1.239902
   6       -1.170212
   7        0.584737
   8        0.770024
   9        8.317579
  10        8.836888
  11       10.060926
  12       10.171394
  13       11.881622
  14       12.619318
  15       13.178383
  16       15.838137
 
  0.0000000E+00  0.0000000E+00  0.2500000E+00  0.3125000E-01
   1      -12.693630
   2      -11.229901
   3       -3.234274
   4        0.969761
   5        1.731236
   6        1.731271
   7        2.404391
   8        2.404414
   9        5.388012
  10        6.614472
  11       11.101074
  12       11.820391
  13       12.286639
  14       12.286666
  15       13.443162
  16       13.443211
 
  0.2500000E+00 -0.6257863E-17  0.2500000E+00  0.1875000E+00
   1      -11.958690
   2      -10.698897
   3       -2.905895
   4       -1.109817
   5       -0.537687
   6        0.897904
   7        1.699186
   8        1.864426
   9        6.704759
  10        8.302017
  11        9.639530
  12       10.523139
  13       12.145698
  14       13.104023
  15       13.214850
  16       14.516121
 
  0.5000000E+00 -0.1251573E-16  0.2500000E+00  0.9375000E-01
   1      -10.763649
   2      -10.225792
   3       -3.851579
   4       -3.085972
   5       -0.544502
   6        0.236359
   7        0.991224
   8        1.356901
   9        6.702582
  10        7.523739
  11        9.837250
  12       10.076213
  13       12.514655
  14       13.082996
  15       13.220317
  16       15.571276
 
  0.2500000E+00  0.2500000E+00  0.2500000E+00  0.1875000E+00
   1      -10.847554
   2      -10.173870
   3       -3.212576
   4       -2.687129
   5       -1.149663
   6       -0.320543
   7        0.200663
   8        1.214423
   9        8.328553
  10        8.522376
  11       10.210007
  12       10.236815
  13       11.356464
  14       11.726340
  15       13.930075
  16       15.663158
 
  0.0000000E+00  0.0000000E+00  0.5000000E+00  0.1562500E-01
   1      -12.061602
   2      -12.061599
   3       -1.262077
   4       -1.262074
   5        2.061416
   6        2.061419
   7        2.061445
   8        2.061449
   9        6.503561
  10        6.503569
  11       10.786974
  12       10.786978
  13       12.702160
  14       12.702163
  15       12.702196
  16       12.702203
 
  0.2500000E+00 -0.6257863E-17  0.5000000E+00  0.9375000E-01
   1      -11.401047
   2      -11.401043
   3       -1.980761
   4       -1.980757
   5        0.605449
   6        0.605452
   7        1.355486
   8        1.355490
   9        7.569434
  10        7.569438
  11        9.926497
  12        9.926500
  13       12.299229
  14       12.299232
  15       13.819186
  16       13.819188
 
  0.5000000E+00 -0.1251573E-16  0.5000000E+00  0.4687500E-01
   1      -10.493266
   2      -10.493260
   3       -3.753378
   4       -3.753372
   5        0.760499
   6        0.760502
   7        0.782385
   8        0.782389
   9        6.813531
  10        6.813535
  11       10.042081
  12       10.042084
  13       12.247203
  14       12.247208
  15       14.407360
  16       14.407361
 
  0.2500000E+00  0.2500000E+00  0.5000000E+00  0.9375000E-01
   1      -10.520839
   2      -10.520833
   3       -3.183751
   4       -3.183744
   5       -0.611865
   6       -0.611862
   7        1.040714
   8        1.040718
   9        8.198662
  10        8.198667
  11       10.271172
  12       10.271175
  13       11.258513
  14       11.258516
  15       14.676239
  16       14.676241
