       N       E                     dE             d eps       ncg     rms          rms(c)
DAV:   1    -0.244781237249E+02   -0.24478E+02   -0.40538E+00   416   0.123E+01    0.336E+00
DAV:   2    -0.242846062494E+02    0.19352E+00   -0.13666E+00   384   0.497E+00    0.101E+00
DAV:   3    -0.242830922918E+02    0.15140E-02   -0.15702E-02   432   0.934E-01    0.464E-01
DAV:   4    -0.242819723633E+02    0.11199E-02   -0.15675E-03   480   0.180E-01    0.912E-02
DAV:   5    -0.242818858094E+02    0.86554E-04   -0.14707E-04   576   0.643E-02
   1 F= -.24281886E+02 E0= -.24281903E+02  d E =0.517854E-04
