 vasp.5.3.3.4 18Dez12 (build Jun 09 2015 23:14:47) complex                      
  
 executed on   half-orig-parallel date 2019.07.29  19:41:29
 running on   16 total cores
 distrk:  each k-point on   16 cores,    1 groups
 distr:  one band on NCORES_PER_BAND=   1 cores,   16 groups


--------------------------------------------------------------------------------------------------------


 INCAR:
 POTCAR:    PAW_PBE Ga 08Apr2002                  
 POTCAR:    PAW_PBE N 08Apr2002                   

 ----------------------------------------------------------------------------- 
|                                                                             |
|           W    W    AA    RRRRR   N    N  II  N    N   GGGG   !!!           |
|           W    W   A  A   R    R  NN   N  II  NN   N  G    G  !!!           |
|           W    W  A    A  R    R  N N  N  II  N N  N  G       !!!           |
|           W WW W  AAAAAA  RRRRR   N  N N  II  N  N N  G  GGG   !            |
|           WW  WW  A    A  R   R   N   NN  II  N   NN  G    G                |
|           W    W  A    A  R    R  N    N  II  N    N   GGGG   !!!           |
|                                                                             |
|      For optimal performance we recommend that you set                      |
|        NPAR = 4 - approx SQRT( number of cores)                             |
|      (number of cores/NPAR must be integer)                                 |
|      This setting will greatly improve the performance of VASP for DFT.     |
|      The default NPAR=number of cores might be grossly inefficient          |
|      on modern multi-core architectures or massively parallel machines.     |
|      Do your own testing.                                                   |
|      Unfortunately you need to use the default for hybrid, GW and RPA       |
|      calculations.                                                          |
|                                                                             |
 ----------------------------------------------------------------------------- 

 POTCAR:    PAW_PBE Ga 08Apr2002                  
   VRHFIN =Ga: s2p1                                                             
   LEXCH  = PE                                                                  
   EATOM  =    58.8688 eV,    4.3267 Ry                                         
                                                                                
   TITEL  = PAW_PBE Ga 08Apr2002                                                
   LULTRA =        F    use ultrasoft PP ?                                      
   IUNSCR =        1    unscreen: 0-lin 1-nonlin 2-no                           
   RPACOR =    2.170    partial core radius                                     
   POMASS =   69.723; ZVAL   =    3.000    mass and valenz                      
   RCORE  =    2.600    outmost cutoff radius                                   
   RWIGS  =    2.650; RWIGS  =    1.402    wigner-seitz radius (au A)           
   ENMAX  =  134.678; ENMIN  =  101.009 eV                                      
   ICORE  =        3    local potential                                         
   LCOR   =        T    correct aug charges                                     
   LPAW   =        T    paw PP                                                  
   EAUG   =  320.264                                                            
   DEXC   =    0.000                                                            
   RMAX   =    2.658    core radius for proj-oper                               
   RAUG   =    1.300    factor for augmentation sphere                          
   RDEP   =    2.684    radius for radial grids                                 
   RDEPT  =    2.308    core radius for aug-charge                              
                                                                                
   Atomic configuration                                                         
   10 entries                                                                   
     n  l   j            E        occ.                                          
     1  0  0.50    -10228.7830   2.0000                                         
     2  0  0.50     -1262.1604   2.0000                                         
     2  1  1.50     -1098.6333   6.0000                                         
     3  0  0.50      -148.1110   2.0000                                         
     3  1  1.50       -98.8436   6.0000                                         
     3  2  2.50       -19.1549  10.0000                                         
     4  0  0.50        -8.9483   2.0000                                         
     4  1  0.50        -2.5791   1.0000                                         
     4  2  1.50         5.4423   0.0000                                         
     4  3  2.50        -2.7416   0.0000                                         
   Description                                                                  
     l       E           TYP  RCUT    TYP  RCUT                                 
     0     -8.9483097     23  2.600                                             
     0     -5.8232215     23  2.600                                             
     1     -2.5790793     23  2.600                                             
     1      5.2230115     23  2.600                                             
     2      1.3605826     23  2.600                                             
     3     -1.3605826      7  2.600                                             
  local pseudopotential read in
  partial core-charges read in
  partial kinetic energy density read in
  atomic valenz-charges read in
  non local Contribution for L=           0  read in
    real space projection operators read in
  non local Contribution for L=           0  read in
    real space projection operators read in
  non local Contribution for L=           1  read in
    real space projection operators read in
  non local Contribution for L=           1  read in
    real space projection operators read in
  non local Contribution for L=           2  read in
    real space projection operators read in
    PAW grid and wavefunctions read in
 
   number of l-projection  operators is LMAX  =           5
   number of lm-projection operators is LMMAX =          13
 
 POTCAR:    PAW_PBE N 08Apr2002                   
   VRHFIN =N: s2p3                                                              
   LEXCH  = PE                                                                  
   EATOM  =   264.5486 eV,   19.4438 Ry                                         
                                                                                
   TITEL  = PAW_PBE N 08Apr2002                                                 
   LULTRA =        F    use ultrasoft PP ?                                      
   IUNSCR =        1    unscreen: 0-lin 1-nonlin 2-no                           
   RPACOR =    1.200    partial core radius                                     
   POMASS =   14.001; ZVAL   =    5.000    mass and valenz                      
   RCORE  =    1.500    outmost cutoff radius                                   
   RWIGS  =    1.400; RWIGS  =    0.741    wigner-seitz radius (au A)           
   ENMAX  =  400.000; ENMIN  =  300.000 eV                                      
   ICORE  =        2    local potential                                         
   LCOR   =        T    correct aug charges                                     
   LPAW   =        T    paw PP                                                  
   EAUG   =  627.112                                                            
   DEXC   =    0.000                                                            
   RMAX   =    1.529    core radius for proj-oper                               
   RAUG   =    1.300    factor for augmentation sphere                          
   RDEP   =    1.514    radius for radial grids                                 
   RDEPT  =    1.338    core radius for aug-charge                              
                                                                                
   Atomic configuration                                                         
    4 entries                                                                   
     n  l   j            E        occ.                                          
     1  0  0.50      -384.7179   2.0000                                         
     2  0  0.50       -18.5828   2.0000                                         
     2  1  0.50        -7.0898   3.0000                                         
     3  2  1.50        -6.8029   0.0000                                         
   Description                                                                  
     l       E           TYP  RCUT    TYP  RCUT                                 
     0    -18.5828119     23  1.200                                             
     0    -13.5018863     23  1.200                                             
     1     -7.0897853     23  1.500                                             
     1      9.5240782     23  1.500                                             
     2     -6.8029130      7  1.500                                             
  local pseudopotential read in
  partial core-charges read in
  partial kinetic energy density read in
  atomic valenz-charges read in
  non local Contribution for L=           0  read in
    real space projection operators read in
  non local Contribution for L=           0  read in
    real space projection operators read in
  non local Contribution for L=           1  read in
    real space projection operators read in
  non local Contribution for L=           1  read in
    real space projection operators read in
    PAW grid and wavefunctions read in
 
   number of l-projection  operators is LMAX  =           4
   number of lm-projection operators is LMMAX =           8
 

 ----------------------------------------------------------------------------- 
|                                                                             |
|  ADVICE TO THIS USER RUNNING 'VASP/VAMP'   (HEAR YOUR MASTER'S VOICE ...):  |
|                                                                             |
|      You have a (more or less) 'small supercell' and for smaller cells      |
|      it is recommended  to use the reciprocal-space projection scheme!      |
|      The real space optimization is not  efficient for small cells and it   |
|      is also less accurate ...                                              |
|      Therefore set LREAL=.FALSE. in the  INCAR file                         |
|                                                                             |
 ----------------------------------------------------------------------------- 

 Optimization of the real space projectors (new method)

 maximal supplied QI-value         = 14.36
 optimisation between [QCUT,QGAM] = [ 10.20, 20.39] = [ 29.12,116.47] Ry 
 Optimized for a Real-space Cutoff    1.46 Angstroem

   l    n(q)    QCUT    max X(q) W(low)/X(q) W(high)/X(q)  e(spline) 
   0      9    10.197    81.156    0.11E-03    0.10E-03    0.46E-07
   0      9    10.197    65.205    0.11E-03    0.11E-03    0.47E-07
   1      8    10.197    44.874    0.19E-03    0.28E-04    0.13E-06
   1      8    10.197    25.010    0.20E-03    0.22E-04    0.14E-06
   2      8    10.197     5.217    0.15E-03    0.18E-03    0.57E-07
 Optimization of the real space projectors (new method)

 maximal supplied QI-value         = 25.13
 optimisation between [QCUT,QGAM] = [ 10.05, 20.36] = [ 28.30,116.06] Ry 
 Optimized for a Real-space Cutoff    1.70 Angstroem

   l    n(q)    QCUT    max X(q) W(low)/X(q) W(high)/X(q)  e(spline) 
   0     10    10.053    79.467    0.61E-04    0.98E-04    0.61E-06
   0     10    10.053    66.151    0.60E-04    0.98E-04    0.61E-06
   1     10    10.053     8.350    0.17E-03    0.71E-03    0.45E-05
   1     10    10.053     5.531    0.18E-03    0.77E-03    0.49E-05
  PAW_PBE Ga 08Apr2002                  :
 energy of atom  1       EATOM=  -58.8688
 kinetic energy error for atom=    0.0001 (will be added to EATOM!!)
  PAW_PBE N 08Apr2002                   :
 energy of atom  2       EATOM= -264.5486
 kinetic energy error for atom=    0.0736 (will be added to EATOM!!)
 
 
 POSCAR: Ga  N                                   
  positions in cartesian coordinates
  No initial velocities read in
 exchange correlation table for  LEXCH =        8
   RHO(1)=    0.500       N(1)  =     2000
   RHO(2)=  100.500       N(2)  =     4000
 


--------------------------------------------------------------------------------------------------------


 ion  position               nearest neighbor table
   1  0.333  0.667  0.999-   4 1.99   4 1.99   4 1.99   3 1.99   2 3.24   2 3.24   2 3.24   2 3.24
                             2 3.24   2 3.24
   2  0.667  0.333  0.499-   3 1.99   3 1.99   3 1.99   4 1.99   1 3.24   1 3.24   1 3.24   1 3.24
                             1 3.24   1 3.24
   3  0.333  0.667  0.376-   2 1.99   2 1.99   2 1.99   1 1.99
   4  0.667  0.333  0.876-   1 1.99   1 1.99   1 1.99   2 1.99
 
  LATTYP: Found a hexagonal cell.
 ALAT       =     3.2475055664
 C/A-ratio  =     1.6291944391
  
  Lattice vectors:
  
 A1 = (   3.2475054316,   0.0000000000,   0.0000000000)
 A2 = (  -1.6237527158,   2.8124223583,   0.0000000000)
 A3 = (   0.0000000000,   0.0000000000,   5.2908180098)


Analysis of symmetry for initial positions (statically):
=====================================================================
 Subroutine PRICEL returns:
 Original cell was already a primitive cell.
 

 Routine SETGRP: Setting up the symmetry group for a 
 hexagonal supercell.


 Subroutine GETGRP returns: Found 12 space group operations
 (whereof  6 operations were pure point group operations)
 out of a pool of 24 trial point group operations.


The static configuration has the point symmetry C_3v.
 The point group associated with its full space group is C_6v.


Analysis of symmetry for dynamics (positions and initial velocities):
=====================================================================
 Subroutine PRICEL returns:
 Original cell was already a primitive cell.
 

 Routine SETGRP: Setting up the symmetry group for a 
 hexagonal supercell.


 Subroutine GETGRP returns: Found 12 space group operations
 (whereof  6 operations were pure point group operations)
 out of a pool of 24 trial point group operations.


The dynamic configuration has the point symmetry C_3v.
 The point group associated with its full space group is C_6v.


 irot  :   1
 --------------------------------------------------------------------
 isymop:   1   0   0
           0   1   0
           0   0   1

 gtrans:     0.0000000     0.0000000     0.0000000

 ptrans:     0.0000000     0.0000000     0.0000000
 rotmap:
 (   1->   1)  (   2->   2)  (   3->   3)  (   4->   4) 


 irot  :   2
 --------------------------------------------------------------------
 isymop:   0  -1   0
           1  -1   0
           0   0   1

 gtrans:     0.0000000     0.0000000     0.0000000

 ptrans:     0.0000000     0.0000000     0.0000000
 rotmap:
 (   1->   1)  (   2->   2)  (   3->   3)  (   4->   4) 


 irot  :   3
 --------------------------------------------------------------------
 isymop:  -1   1   0
          -1   0   0
           0   0   1

 gtrans:     0.0000000     0.0000000     0.0000000

 ptrans:     0.0000000     0.0000000     0.0000000
 rotmap:
 (   1->   1)  (   2->   2)  (   3->   3)  (   4->   4) 


 irot  :   4
 --------------------------------------------------------------------
 isymop:  -1   1   0
           0   1   0
           0   0   1

 gtrans:     0.0000000     0.0000000     0.0000000

 ptrans:     0.0000000     0.0000000     0.0000000
 rotmap:
 (   1->   1)  (   2->   2)  (   3->   3)  (   4->   4) 


 irot  :   5
 --------------------------------------------------------------------
 isymop:   1   0   0
           1  -1   0
           0   0   1

 gtrans:     0.0000000     0.0000000     0.0000000

 ptrans:     0.0000000     0.0000000     0.0000000
 rotmap:
 (   1->   1)  (   2->   2)  (   3->   3)  (   4->   4) 


 irot  :   6
 --------------------------------------------------------------------
 isymop:   0  -1   0
          -1   0   0
           0   0   1

 gtrans:     0.0000000     0.0000000     0.0000000

 ptrans:     0.0000000     0.0000000     0.0000000
 rotmap:
 (   1->   1)  (   2->   2)  (   3->   3)  (   4->   4) 


 irot  :   7
 --------------------------------------------------------------------
 isymop:   1  -1   0
           1   0   0
           0   0   1

 gtrans:     0.0000010     0.0000000     0.5000000

 ptrans:     0.0000000     0.0000000     0.0000000
 rotmap:
 (   1->   2)  (   2->   1)  (   3->   4)  (   4->   3) 


 irot  :   8
 --------------------------------------------------------------------
 isymop:  -1   0   0
           0  -1   0
           0   0   1

 gtrans:     0.0000000     0.0000000     0.5000000

 ptrans:     0.0000000     0.0000000     0.0000000
 rotmap:
 (   1->   2)  (   2->   1)  (   3->   4)  (   4->   3) 


 irot  :   9
 --------------------------------------------------------------------
 isymop:   0   1   0
          -1   1   0
           0   0   1

 gtrans:     0.0000000     0.0000000     0.5000000

 ptrans:     0.0000000     0.0000000     0.0000000
 rotmap:
 (   1->   2)  (   2->   1)  (   3->   4)  (   4->   3) 


 irot  :  10
 --------------------------------------------------------------------
 isymop:   0   1   0
           1   0   0
           0   0   1

 gtrans:     0.0000000     0.0000000     0.5000000

 ptrans:     0.0000000     0.0000000     0.0000000
 rotmap:
 (   1->   2)  (   2->   1)  (   3->   4)  (   4->   3) 


 irot  :  11
 --------------------------------------------------------------------
 isymop:   1  -1   0
           0  -1   0
           0   0   1

 gtrans:     0.0000010     0.0000000     0.5000000

 ptrans:     0.0000000     0.0000000     0.0000000
 rotmap:
 (   1->   2)  (   2->   1)  (   3->   4)  (   4->   3) 


 irot  :  12
 --------------------------------------------------------------------
 isymop:  -1   0   0
          -1   1   0
           0   0   1

 gtrans:     0.0000000     0.0000000     0.5000000

 ptrans:     0.0000000     0.0000000     0.0000000
 rotmap:
 (   1->   2)  (   2->   1)  (   3->   4)  (   4->   3) 
 
 
 KPOINTS: KPOINTS created by Atomic Simulation Env

Automatic generation of k-mesh.
Space group operators:
 irot       det(A)        alpha          n_x          n_y          n_z        tau_x        tau_y        tau_z
    1     1.000000     0.000000     1.000000     0.000000     0.000000     0.000000     0.000000     0.000000
    2     1.000000   120.000000     0.000000     0.000000    -1.000000     0.000000     0.000000     0.000000
    3     1.000000   120.000000     0.000000     0.000000     1.000000     0.000000     0.000000     0.000000
    4    -1.000000   180.000000     1.000000    -0.000000     0.000000     0.000000     0.000000     0.000000
    5    -1.000000   180.000000     0.500000    -0.866025     0.000000     0.000000     0.000000     0.000000
    6    -1.000000   180.000000    -0.500000    -0.866025     0.000000     0.000000     0.000000     0.000000
    7     1.000000    60.000000     0.000000     0.000000    -1.000000     0.000001     0.000000     0.500000
    8     1.000000   180.000000     0.000000     0.000000     1.000000     0.000000     0.000000     0.500000
    9     1.000000    60.000000     0.000000     0.000000     1.000000     0.000000     0.000000     0.500000
   10    -1.000000   180.000000     0.866025    -0.500000     0.000000     0.000000     0.000000     0.500000
   11    -1.000000   180.000000     0.000000     1.000000     0.000000     0.000001     0.000000     0.500000
   12    -1.000000   180.000000     0.866025     0.500000     0.000000     0.000000     0.000000     0.500000
 
 Subroutine IBZKPT returns following result:
 ===========================================
 
 Found     12 irreducible k-points:
 
 Following reciprocal coordinates:
            Coordinates               Weight
  0.000000  0.000000  0.000000      1.000000
  0.250000 -0.000000  0.000000      6.000000
  0.500000 -0.000000  0.000000      3.000000
  0.250000  0.250000  0.000000      6.000000
  0.000000  0.000000  0.250000      2.000000
  0.250000 -0.000000  0.250000     12.000000
  0.500000 -0.000000  0.250000      6.000000
  0.250000  0.250000  0.250000     12.000000
  0.000000  0.000000  0.500000      1.000000
  0.250000 -0.000000  0.500000      6.000000
  0.500000 -0.000000  0.500000      3.000000
  0.250000  0.250000  0.500000      6.000000
 
 Following cartesian coordinates:
            Coordinates               Weight
  0.000000  0.000000  0.000000      1.000000
  0.076982  0.044446  0.000000      6.000000
  0.153964  0.088891  0.000000      3.000000
  0.076982  0.133337  0.000000      6.000000
  0.000000  0.000000  0.047252      2.000000
  0.076982  0.044446  0.047252     12.000000
  0.153964  0.088891  0.047252      6.000000
  0.076982  0.133337  0.047252     12.000000
  0.000000  0.000000  0.094503      1.000000
  0.076982  0.044446  0.094503      6.000000
  0.153964  0.088891  0.094503      3.000000
  0.076982  0.133337  0.094503      6.000000
 


--------------------------------------------------------------------------------------------------------




 Dimension of arrays:
   k-points           NKPTS =     12   k-points in BZ     NKDIM =     12   number of bands    NBANDS=     16
   number of dos      NEDOS =    301   number of ions     NIONS =      4
   non local maximal  LDIM  =      5   non local SUM 2l+1 LMDIM =     13
   total plane-waves  NPLWV =  20736
   max r-space proj   IRMAX =   8847   max aug-charges    IRDMAX=  31037
   dimension x,y,z NGX =    24 NGY =   24 NGZ =   36
   dimension x,y,z NGXF=    48 NGYF=   48 NGZF=   72
   support grid    NGXF=    48 NGYF=   48 NGZF=   72
   ions per type =               2   2
 NGX,Y,Z   is equivalent  to a cutoff of  12.29, 12.29, 11.31 a.u.
 NGXF,Y,Z  is equivalent  to a cutoff of  24.57, 24.57, 22.62 a.u.


 I would recommend the setting:
   dimension x,y,z NGX =    21 NGY =   21 NGZ =   35
 SYSTEM =  unknown system                          
 POSCAR =  Ga  N                                   

 Startparameter for this run:
   NWRITE =      2    write-flag & timer
   PREC   = acc       normal or accurate (medium, high low for compatibility)
   ISTART =      1    job   : 0-new  1-cont  2-samecut
   ICHARG =      0    charge: 1-file 2-atom 10-const
   ISPIN  =      1    spin polarized calculation?
   LNONCOLLINEAR =      F non collinear calculations
   LSORBIT =      F    spin-orbit coupling
   INIWAV =      1    electr: 0-lowe 1-rand  2-diag
   LASPH  =      F    aspherical Exc in radial PAW
   METAGGA=      F    non-selfconsistent MetaGGA calc.

 Electronic Relaxation 1
   ENCUT  =  400.0 eV  29.40 Ry    5.42 a.u.   5.30  5.30  8.63*2*pi/ulx,y,z
   ENINI  =  400.0     initial cutoff
   ENAUG  =  627.1 eV  augmentation charge cutoff
   NELM   =     60;   NELMIN=  2; NELMDL=  0     # of ELM steps 
   EDIFF  = 0.1E-03   stopping-criterion for ELM
   LREAL  =      T    real-space projection
   NLSPLINE    = F    spline interpolate recip. space projectors
   LCOMPAT=      F    compatible to vasp.4.4
   GGA_COMPAT  = T    GGA compatible to vasp.4.4-vasp.4.6
   LMAXPAW     = -100 max onsite density
   LMAXMIX     =    2 max onsite mixed and CHGCAR
   VOSKOWN=      0    Vosko Wilk Nusair interpolation
   ROPT   =   -0.00025  -0.00025
 Ionic relaxation
   EDIFFG = -.1E-05   stopping-criterion for IOM
   NSW    =      0    number of steps for IOM
   NBLOCK =      1;   KBLOCK =      1    inner block; outer block 
   IBRION =     -1    ionic relax: 0-MD 1-quasi-New 2-CG
   NFREE  =      0    steps in history (QN), initial steepest desc. (CG)
   ISIF   =      2    stress and relaxation
   IWAVPR =     10    prediction:  0-non 1-charg 2-wave 3-comb
   ISYM   =      2    0-nonsym 1-usesym 2-fastsym
   LCORR  =      T    Harris-Foulkes like correction to forces

   POTIM  = 0.5000    time-step for ionic-motion
   TEIN   =    0.0    initial temperature
   TEBEG  =    0.0;   TEEND  =   0.0 temperature during run
   SMASS  =  -3.00    Nose mass-parameter (am)
   estimated Nose-frequenzy (Omega)   =  0.10E-29 period in steps =****** mass=  -0.241E-27a.u.
   SCALEE = 1.0000    scale energy and forces
   NPACO  =    256;   APACO  = 16.0  distance and # of slots for P.C.
   PSTRESS=    0.0 pullay stress

  Mass of Ions in am
   POMASS =  69.72 14.00
  Ionic Valenz
   ZVAL   =   3.00  5.00
  Atomic Wigner-Seitz radii
   RWIGS  =  -1.00 -1.00
  virtual crystal weights 
   VCA    =   1.00  1.00
   NELECT =      16.0000    total number of electrons
   NUPDOWN=      -1.0000    fix difference up-down

 DOS related values:
   EMIN   =  10.00;   EMAX   =-10.00  energy-range for DOS
   EFERMI =   0.00
   ISMEAR =     1;   SIGMA  =   0.03  broadening in eV -4-tet -1-fermi 0-gaus

 Electronic relaxation 2 (details)
   IALGO  =     38    algorithm
   LDIAG  =      T    sub-space diagonalisation (order eigenvalues)
   LSUBROT=      T    optimize rotation matrix (better conditioning)
   TURBO    =      0    0=normal 1=particle mesh
   IRESTART =      0    0=no restart 2=restart with 2 vectors
   NREBOOT  =      0    no. of reboots
   NMIN     =      0    reboot dimension
   EREF     =   0.00    reference energy to select bands
   IMIX   =      4    mixing-type and parameters
     AMIX     =   0.40;   BMIX     =  1.00
     AMIX_MAG =   1.60;   BMIX_MAG =  1.00
     AMIN     =   0.10
     WC   =   100.;   INIMIX=   1;  MIXPRE=   1;  MAXMIX= -45

 Intra band minimization:
   WEIMIN = 0.0000     energy-eigenvalue tresh-hold
   EBREAK =  0.16E-08  absolut break condition
   DEPER  =   0.30     relativ break condition  

   TIME   =   0.40     timestep for ELM

  volume/ion in A,a.u.               =      12.08        81.52
  Fermi-wavevector in a.u.,A,eV,Ry     =   1.132567  2.140240 17.452289  1.282707
  Thomas-Fermi vector in A             =   2.269268
 
 Write flags
   LWAVE  =      T    write WAVECAR
   LCHARG =      T    write CHGCAR
   LVTOT  =      F    write LOCPOT, total local potential
   LVHAR  =      F    write LOCPOT, Hartree potential only
   LELF   =      F    write electronic localiz. function (ELF)
   LORBIT =     11    0 simple, 1 ext, 2 COOP (PROOUT)


 Dipole corrections
   LMONO  =      F    monopole corrections only (constant potential shift)
   LDIPOL =      F    correct potential (dipole corrections)
   IDIPOL =      0    1-x, 2-y, 3-z, 4-all directions 
   EPSILON=  1.0000000 bulk dielectric constant

 Exchange correlation treatment:
   GGA     =    PE    GGA type
   LEXCH   =     8    internal setting for exchange type
   VOSKOWN=      0    Vosko Wilk Nusair interpolation
   LHFCALC =     F    Hartree Fock is set to
   LHFONE  =     F    Hartree Fock one center treatment
   AEXX    =    0.0000 exact exchange contribution

 Linear response parameters
   LEPSILON=     F    determine dielectric tensor
   LRPA    =     F    only Hartree local field effects (RPA)
   LNABLA  =     F    use nabla operator in PAW spheres
   LVEL    =     F    velocity operator in full k-point grid
   LINTERFAST=   F  fast interpolation
   KINTER  =     0    interpolate to denser k-point grid
   CSHIFT  =0.1000    complex shift for real part using Kramers Kronig
   OMEGAMAX=  -1.0    maximum frequency
   DEG_THRESHOLD= 0.2000000E-02 threshold for treating states as degnerate
   RTIME   =    0.100 relaxation time in fs

 Orbital magnetization related:
   ORBITALMAG=     F  switch on orbital magnetization
   LCHIMAG   =     F  perturbation theory with respect to B field
   DQ        =  0.001000  dq finite difference perturbation B field



--------------------------------------------------------------------------------------------------------


 Static calculation
 charge density and potential will be updated during run
 non-spin polarized calculation
 Variant of blocked Davidson
 Davidson routine will perform the subspace rotation
 perform sub-space diagonalisation
    after iterative eigenvector-optimisation
 modified Broyden-mixing scheme, WC =      100.0
 initial mixing is a Kerker type mixing with AMIX =  0.4000 and BMIX =      1.0000
 Hartree-type preconditioning will be used
 using additional bands            8
 real space projection scheme for non local part
 use partial core corrections
 calculate Harris-corrections to forces 
   (improved forces if not selfconsistent)
 use gradient corrections 
 use of overlap-Matrix (Vanderbilt PP)
 Methfessel and Paxton  Order N= 1 SIGMA  =   0.03


--------------------------------------------------------------------------------------------------------


  energy-cutoff  :      400.00
  volume of cell :       48.32
      direct lattice vectors                 reciprocal lattice vectors
     3.247505432  0.000000000  0.000000000     0.307928661  0.177782686  0.000000000
    -1.623752716  2.812422358  0.000000000     0.000000000  0.355565371  0.000000000
     0.000000000  0.000000000  5.290818010     0.000000000  0.000000000  0.189006690

  length of vectors
     3.247505432  3.247505566  5.290818010     0.355565386  0.355565371  0.189006690


 
 old parameters found on file WAVECAR:
  energy-cutoff  :      400.00
  volume of cell :       50.88
      direct lattice vectors                 reciprocal lattice vectors
     3.303827666  0.000000000  0.000000000     0.302679226  0.174751923  0.000000000
    -1.651913833  2.861198846  0.000000000     0.000000000  0.349503846  0.000000000
     0.000000000  0.000000000  5.382577884     0.000000000  0.000000000  0.185784585

  length of vectors

 
 k-points in units of 2pi/SCALE and weight: KPOINTS created by Atomic Simulation Env
   0.00000000  0.00000000  0.00000000       0.016
   0.07698217  0.04444567  0.00000000       0.094
   0.15396433  0.08889134  0.00000000       0.047
   0.07698217  0.13333701  0.00000000       0.094
   0.00000000  0.00000000  0.04725167       0.031
   0.07698217  0.04444567  0.04725167       0.188
   0.15396433  0.08889134  0.04725167       0.094
   0.07698217  0.13333701  0.04725167       0.188
   0.00000000  0.00000000  0.09450335       0.016
   0.07698217  0.04444567  0.09450335       0.094
   0.15396433  0.08889134  0.09450335       0.047
   0.07698217  0.13333701  0.09450335       0.094
 
 k-points in reciprocal lattice and weights: KPOINTS created by Atomic Simulation Env
   0.00000000  0.00000000  0.00000000       0.016
   0.25000000 -0.00000000  0.00000000       0.094
   0.50000000 -0.00000000  0.00000000       0.047
   0.25000000  0.25000000  0.00000000       0.094
   0.00000000  0.00000000  0.25000000       0.031
   0.25000000 -0.00000000  0.25000000       0.188
   0.50000000 -0.00000000  0.25000000       0.094
   0.25000000  0.25000000  0.25000000       0.188
   0.00000000  0.00000000  0.50000000       0.016
   0.25000000 -0.00000000  0.50000000       0.094
   0.50000000 -0.00000000  0.50000000       0.047
   0.25000000  0.25000000  0.50000000       0.094
 
 position of ions in fractional coordinates (direct lattice) 
   0.33333300  0.66666700  0.99912000
   0.66666700  0.33333300  0.49912000
   0.33333300  0.66666700  0.37588000
   0.66666700  0.33333300  0.87588000
 
 position of ions in cartesian coordinates  (Angst):
  -0.00000162  1.87494918  5.28616209
   1.62375434  0.93747318  2.64075309
  -0.00000162  1.87494918  1.98871267
   1.62375434  0.93747318  4.63412168
 


--------------------------------------------------------------------------------------------------------


 k-point  1 :   0.0000 0.0000 0.0000  plane waves:     881
 k-point  2 :   0.2500-0.0000 0.0000  plane waves:     867
 k-point  3 :   0.5000-0.0000 0.0000  plane waves:     884
 k-point  4 :   0.2500 0.2500 0.0000  plane waves:     889
 k-point  5 :   0.0000 0.0000 0.2500  plane waves:     875
 k-point  6 :   0.2500-0.0000 0.2500  plane waves:     878
 k-point  7 :   0.5000-0.0000 0.2500  plane waves:     884
 k-point  8 :   0.2500 0.2500 0.2500  plane waves:     873
 k-point  9 :   0.0000 0.0000 0.5000  plane waves:     870
 k-point 10 :   0.2500-0.0000 0.5000  plane waves:     886
 k-point 11 :   0.5000-0.0000 0.5000  plane waves:     880
 k-point 12 :   0.2500 0.2500 0.5000  plane waves:     868

 maximum and minimum number of plane-waves per node :       889      867

 maximum number of plane-waves:       889
 maximum index in each direction: 
   IXMAX=    5   IYMAX=    5   IZMAX=    8
   IXMIN=   -5   IYMIN=   -5   IZMIN=   -9

 NGX is ok and might be reduce to  22
 NGY is ok and might be reduce to  22
 NGZ is ok and might be reduce to  36

 serial   3D FFT for wavefunctions
 parallel 3D FFT for charge:
    minimum data exchange during FFTs selected (reduces bandwidth)


 total amount of memory used by VASP on root node    35145. kBytes
========================================================================

   base      :      30000. kBytes
   nonlr-proj:       3053. kBytes
   fftplans  :        449. kBytes
   grid      :       1430. kBytes
   one-center:         32. kBytes
   wavefun   :        181. kBytes
 
 Broyden mixing: mesh for mixing (old mesh)
   NGX = 11   NGY = 11   NGZ = 17
  (NGX  = 48   NGY  = 48   NGZ  = 72)
  gives a total of   2057 points

 charge density for first step will be calculated from the start-wavefunctions


--------------------------------------------------------------------------------------------------------


 Maximum index for non-local projection operator         8524
 Maximum index for augmentation-charges         1979 (set IRDMAX)


--------------------------------------------------------------------------------------------------------


 initial charge from wavefunction
 First call to EWALD:  gamma=   0.487
 Maximum number of real-space cells 3x 3x 2
 Maximum number of reciprocal cells 3x 3x 4

 FEWALD executed in parallel
    FEWALD:  cpu time    0.00: real time    0.00


----------------------------------------- Iteration    1(   1)  ---------------------------------------


    POTLOK:  cpu time    0.01: real time    0.01
    SETDIJ:  cpu time    0.00: real time    0.00
     EDDAV:  cpu time    0.13: real time    0.13
       DOS:  cpu time    0.00: real time    0.00
    CHARGE:  cpu time    0.01: real time    0.01
    MIXING:  cpu time    0.00: real time    0.00
    --------------------------------------------
      LOOP:  cpu time    0.15: real time    0.15

 eigenvalue-minimisations  :   416
 total energy-change (2. order) :-0.2447812E+02  (-0.4053784E+00)
 number of electron      16.0000000 magnetization 
 augmentation part       -0.5080143 magnetization 

 Broyden mixing:
  rms(total) = 0.33617E+00    rms(broyden)= 0.33598E+00
  rms(prec ) = 0.56419E+00
  weight for this iteration     100.00

 Free energy of the ion-electron system (eV)
  ---------------------------------------------------
  alpha Z        PSCENC =        53.64533683
  Ewald energy   TEWEN  =      -563.85685719
  -1/2 Hartree   DENC   =      -165.66165393
  -exchange  EXHF       =         0.00000000
  -V(xc)+E(xc)   XCENC  =         4.09325105
  PAW double counting   =      1461.50167192    -1417.83129052
  entropy T*S    EENTRO =         0.00004900
  eigenvalues    EBANDS =       -43.05605574
  atomic energy  EATOM  =       646.68742485
  ---------------------------------------------------
  free energy    TOTEN  =       -24.47812372 eV

  energy without entropy =      -24.47817273  energy(sigma->0) =      -24.47814006


--------------------------------------------------------------------------------------------------------




----------------------------------------- Iteration    1(   2)  ---------------------------------------


    POTLOK:  cpu time    0.01: real time    0.01
    SETDIJ:  cpu time    0.00: real time    0.00
     EDDAV:  cpu time    0.13: real time    0.13
       DOS:  cpu time    0.00: real time    0.00
    CHARGE:  cpu time    0.01: real time    0.01
    MIXING:  cpu time    0.00: real time    0.00
    --------------------------------------------
      LOOP:  cpu time    0.15: real time    0.16

 eigenvalue-minimisations  :   384
 total energy-change (2. order) : 0.1935175E+00  (-0.1366607E+00)
 number of electron      16.0000000 magnetization 
 augmentation part       -0.4138811 magnetization 

 Broyden mixing:
  rms(total) = 0.10067E+00    rms(broyden)= 0.10063E+00
  rms(prec ) = 0.11539E+00
  weight for this iteration     100.00

 eigenvalues of (default mixing * dielectric matrix)
  average eigenvalue GAMMA=   1.1113
  1.1113

 Free energy of the ion-electron system (eV)
  ---------------------------------------------------
  alpha Z        PSCENC =        53.64533683
  Ewald energy   TEWEN  =      -563.85685719
  -1/2 Hartree   DENC   =      -158.65968360
  -exchange  EXHF       =         0.00000000
  -V(xc)+E(xc)   XCENC  =         3.58128913
  PAW double counting   =      1527.73633560    -1484.02530601
  entropy T*S    EENTRO =         0.00005189
  eigenvalues    EBANDS =       -49.39319774
  atomic energy  EATOM  =       646.68742485
  ---------------------------------------------------
  free energy    TOTEN  =       -24.28460625 eV

  energy without entropy =      -24.28465814  energy(sigma->0) =      -24.28462354


--------------------------------------------------------------------------------------------------------




----------------------------------------- Iteration    1(   3)  ---------------------------------------


    POTLOK:  cpu time    0.01: real time    0.01
    SETDIJ:  cpu time    0.00: real time    0.00
     EDDAV:  cpu time    0.13: real time    0.13
       DOS:  cpu time    0.00: real time    0.00
    CHARGE:  cpu time    0.01: real time    0.01
    MIXING:  cpu time    0.00: real time    0.00
    --------------------------------------------
      LOOP:  cpu time    0.15: real time    0.15

 eigenvalue-minimisations  :   432
 total energy-change (2. order) : 0.1513958E-02  (-0.1570209E-02)
 number of electron      16.0000000 magnetization 
 augmentation part       -0.4191882 magnetization 

 Broyden mixing:
  rms(total) = 0.46443E-01    rms(broyden)= 0.46441E-01
  rms(prec ) = 0.55180E-01
  weight for this iteration     100.00

 eigenvalues of (default mixing * dielectric matrix)
  average eigenvalue GAMMA=   1.3718
  0.9678  1.7758

 Free energy of the ion-electron system (eV)
  ---------------------------------------------------
  alpha Z        PSCENC =        53.64533683
  Ewald energy   TEWEN  =      -563.85685719
  -1/2 Hartree   DENC   =      -158.91772509
  -exchange  EXHF       =         0.00000000
  -V(xc)+E(xc)   XCENC  =         3.62922833
  PAW double counting   =      1573.05518763    -1529.35225075
  entropy T*S    EENTRO =         0.00005169
  eigenvalues    EBANDS =       -49.17348859
  atomic energy  EATOM  =       646.68742485
  ---------------------------------------------------
  free energy    TOTEN  =       -24.28309229 eV

  energy without entropy =      -24.28314398  energy(sigma->0) =      -24.28310952


--------------------------------------------------------------------------------------------------------




----------------------------------------- Iteration    1(   4)  ---------------------------------------


    POTLOK:  cpu time    0.01: real time    0.01
    SETDIJ:  cpu time    0.00: real time    0.00
     EDDAV:  cpu time    0.14: real time    0.14
       DOS:  cpu time    0.00: real time    0.00
    CHARGE:  cpu time    0.01: real time    0.01
    MIXING:  cpu time    0.00: real time    0.00
    --------------------------------------------
      LOOP:  cpu time    0.16: real time    0.16

 eigenvalue-minimisations  :   480
 total energy-change (2. order) : 0.1119928E-02  (-0.1567485E-03)
 number of electron      16.0000000 magnetization 
 augmentation part       -0.4229256 magnetization 

 Broyden mixing:
  rms(total) = 0.91181E-02    rms(broyden)= 0.91180E-02
  rms(prec ) = 0.12440E-01
  weight for this iteration     100.00

 eigenvalues of (default mixing * dielectric matrix)
  average eigenvalue GAMMA=   1.3567
  2.1605  0.9548  0.9548

 Free energy of the ion-electron system (eV)
  ---------------------------------------------------
  alpha Z        PSCENC =        53.64533683
  Ewald energy   TEWEN  =      -563.85685719
  -1/2 Hartree   DENC   =      -158.95899223
  -exchange  EXHF       =         0.00000000
  -V(xc)+E(xc)   XCENC  =         3.66271071
  PAW double counting   =      1612.88534475    -1569.18673133
  entropy T*S    EENTRO =         0.00005175
  eigenvalues    EBANDS =       -49.16026050
  atomic energy  EATOM  =       646.68742485
  ---------------------------------------------------
  free energy    TOTEN  =       -24.28197236 eV

  energy without entropy =      -24.28202411  energy(sigma->0) =      -24.28198961


--------------------------------------------------------------------------------------------------------




----------------------------------------- Iteration    1(   5)  ---------------------------------------


    POTLOK:  cpu time    0.01: real time    0.01
    SETDIJ:  cpu time    0.00: real time    0.00
     EDDAV:  cpu time    0.17: real time    0.17
       DOS:  cpu time    0.00: real time    0.00
    --------------------------------------------
      LOOP:  cpu time    0.17: real time    0.18

 eigenvalue-minimisations  :   576
 total energy-change (2. order) : 0.8655391E-04  (-0.1470731E-04)
 number of electron      16.0000000 magnetization 
 augmentation part       -0.4229256 magnetization 

 Free energy of the ion-electron system (eV)
  ---------------------------------------------------
  alpha Z        PSCENC =        53.64533683
  Ewald energy   TEWEN  =      -563.85685719
  -1/2 Hartree   DENC   =      -158.88332417
  -exchange  EXHF       =         0.00000000
  -V(xc)+E(xc)   XCENC  =         3.66460283
  PAW double counting   =      1620.82217221    -1577.12481968
  entropy T*S    EENTRO =         0.00005179
  eigenvalues    EBANDS =       -49.23647328
  atomic energy  EATOM  =       646.68742485
  ---------------------------------------------------
  free energy    TOTEN  =       -24.28188581 eV

  energy without entropy =      -24.28193759  energy(sigma->0) =      -24.28190307


--------------------------------------------------------------------------------------------------------




 average (electrostatic) potential at core
  the test charge radii are     1.2767  0.7089
  (the norm of the test charge is              1.0000)
       1 -13.3806       2 -13.3805       3 -64.6903       4 -64.6903
 
 
 
 E-fermi :   2.5706     XC(G=0): -10.6063     alpha+bet :-10.4720


 k-point   1 :       0.0000    0.0000    0.0000
  band No.  band energies     occupation 
      1     -12.9193      2.00000
      2     -10.7767      2.00000
      3      -4.1015      2.00000
      4       1.5966      2.00000
      5       1.5966      2.00000
      6       2.5178      2.01091
      7       2.5498      1.99472
      8       2.5499      1.99437
      9       4.1394      0.00000
     10       6.5098      0.00000
     11      11.4801      0.00000
     12      12.1964      0.00000
     13      12.1964      0.00000
     14      12.9686      0.00000
     15      13.9085      0.00000
     16      13.9085      0.00000

 k-point   2 :       0.2500   -0.0000    0.0000
  band No.  band energies     occupation 
      1     -12.1615      2.00000
      2     -10.3385      2.00000
      3      -3.3617      2.00000
      4      -1.2529      2.00000
      5      -0.3333      2.00000
      6       0.7204      2.00000
      7       1.8966      2.00000
      8       2.0937      2.00000
      9       6.5640      0.00000
     10       8.2231      0.00000
     11       9.7660      0.00000
     12      10.8680      0.00000
     13      12.3778      0.00000
     14      12.9808      0.00000
     15      13.6892      0.00000
     16      14.8429      0.00000

 k-point   3 :       0.5000   -0.0000    0.0000
  band No.  band energies     occupation 
      1     -10.8740      2.00000
      2     -10.1197      2.00000
      3      -3.6298      2.00000
      4      -2.5407      2.00000
      5      -1.3795      2.00000
      6       0.0346      2.00000
      7       0.4986      2.00000
      8       1.6327      2.00000
      9       7.5025      0.00000
     10       7.8153      0.00000
     11       8.5203      0.00000
     12      10.7711      0.00000
     13      12.6025      0.00000
     14      12.7134      0.00000
     15      14.6968      0.00000
     16      15.3701      0.00000

 k-point   4 :       0.2500    0.2500    0.0000
  band No.  band energies     occupation 
      1     -10.9765      2.00000
      2     -10.0258      2.00000
      3      -2.9100      2.00000
      4      -2.3951      2.00000
      5      -1.2399      2.00000
      6      -1.1702      2.00000
      7       0.5847      2.00000
      8       0.7700      2.00000
      9       8.3176      0.00000
     10       8.8369      0.00000
     11      10.0609      0.00000
     12      10.1714      0.00000
     13      11.8816      0.00000
     14      12.6193      0.00000
     15      13.1784      0.00000
     16      15.8381      0.00000

 k-point   5 :       0.0000    0.0000    0.2500
  band No.  band energies     occupation 
      1     -12.6936      2.00000
      2     -11.2299      2.00000
      3      -3.2343      2.00000
      4       0.9698      2.00000
      5       1.7312      2.00000
      6       1.7313      2.00000
      7       2.4044      2.00000
      8       2.4044      2.00000
      9       5.3880      0.00000
     10       6.6145      0.00000
     11      11.1011      0.00000
     12      11.8204      0.00000
     13      12.2866      0.00000
     14      12.2867      0.00000
     15      13.4432      0.00000
     16      13.4432      0.00000

 k-point   6 :       0.2500   -0.0000    0.2500
  band No.  band energies     occupation 
      1     -11.9587      2.00000
      2     -10.6989      2.00000
      3      -2.9059      2.00000
      4      -1.1098      2.00000
      5      -0.5377      2.00000
      6       0.8979      2.00000
      7       1.6992      2.00000
      8       1.8644      2.00000
      9       6.7048      0.00000
     10       8.3020      0.00000
     11       9.6395      0.00000
     12      10.5231      0.00000
     13      12.1457      0.00000
     14      13.1040      0.00000
     15      13.2148      0.00000
     16      14.5161      0.00000

 k-point   7 :       0.5000   -0.0000    0.2500
  band No.  band energies     occupation 
      1     -10.7636      2.00000
      2     -10.2258      2.00000
      3      -3.8516      2.00000
      4      -3.0860      2.00000
      5      -0.5445      2.00000
      6       0.2364      2.00000
      7       0.9912      2.00000
      8       1.3569      2.00000
      9       6.7026      0.00000
     10       7.5237      0.00000
     11       9.8372      0.00000
     12      10.0762      0.00000
     13      12.5147      0.00000
     14      13.0830      0.00000
     15      13.2203      0.00000
     16      15.5713      0.00000

 k-point   8 :       0.2500    0.2500    0.2500
  band No.  band energies     occupation 
      1     -10.8476      2.00000
      2     -10.1739      2.00000
      3      -3.2126      2.00000
      4      -2.6871      2.00000
      5      -1.1497      2.00000
      6      -0.3205      2.00000
      7       0.2007      2.00000
      8       1.2144      2.00000
      9       8.3286      0.00000
     10       8.5224      0.00000
     11      10.2100      0.00000
     12      10.2368      0.00000
     13      11.3565      0.00000
     14      11.7263      0.00000
     15      13.9301      0.00000
     16      15.6632      0.00000

 k-point   9 :       0.0000    0.0000    0.5000
  band No.  band energies     occupation 
      1     -12.0616      2.00000
      2     -12.0616      2.00000
      3      -1.2621      2.00000
      4      -1.2621      2.00000
      5       2.0614      2.00000
      6       2.0614      2.00000
      7       2.0614      2.00000
      8       2.0614      2.00000
      9       6.5036      0.00000
     10       6.5036      0.00000
     11      10.7870      0.00000
     12      10.7870      0.00000
     13      12.7022      0.00000
     14      12.7022      0.00000
     15      12.7022      0.00000
     16      12.7022      0.00000

 k-point  10 :       0.2500   -0.0000    0.5000
  band No.  band energies     occupation 
      1     -11.4010      2.00000
      2     -11.4010      2.00000
      3      -1.9808      2.00000
      4      -1.9808      2.00000
      5       0.6054      2.00000
      6       0.6055      2.00000
      7       1.3555      2.00000
      8       1.3555      2.00000
      9       7.5694      0.00000
     10       7.5694      0.00000
     11       9.9265      0.00000
     12       9.9265      0.00000
     13      12.2992      0.00000
     14      12.2992      0.00000
     15      13.8192      0.00000
     16      13.8192      0.00000

 k-point  11 :       0.5000   -0.0000    0.5000
  band No.  band energies     occupation 
      1     -10.4933      2.00000
      2     -10.4933      2.00000
      3      -3.7534      2.00000
      4      -3.7534      2.00000
      5       0.7605      2.00000
      6       0.7605      2.00000
      7       0.7824      2.00000
      8       0.7824      2.00000
      9       6.8135      0.00000
     10       6.8135      0.00000
     11      10.0421      0.00000
     12      10.0421      0.00000
     13      12.2472      0.00000
     14      12.2472      0.00000
     15      14.4074      0.00000
     16      14.4074      0.00000

 k-point  12 :       0.2500    0.2500    0.5000
  band No.  band energies     occupation 
      1     -10.5208      2.00000
      2     -10.5208      2.00000
      3      -3.1838      2.00000
      4      -3.1837      2.00000
      5      -0.6119      2.00000
      6      -0.6119      2.00000
      7       1.0407      2.00000
      8       1.0407      2.00000
      9       8.1987      0.00000
     10       8.1987      0.00000
     11      10.2712      0.00000
     12      10.2712      0.00000
     13      11.2585      0.00000
     14      11.2585      0.00000
     15      14.6762      0.00000
     16      14.6762      0.00000


--------------------------------------------------------------------------------------------------------


 soft charge-density along one line, spin component           1
         0         1         2         3         4         5         6         7         8         9
 total charge-density along one line
 
 pseudopotential strength for first ion, spin component:           1
  5.556   6.639   0.000  -0.000  -0.000   0.000  -0.001  -0.000
  6.639   7.924   0.000  -0.000  -0.000   0.000  -0.001  -0.000
  0.000   0.000   1.279  -0.000   0.000   2.138  -0.000   0.000
 -0.000  -0.000  -0.000   1.278   0.000  -0.000   2.137   0.000
 -0.000  -0.000   0.000   0.000   1.279   0.000   0.000   2.138
  0.000   0.000   2.138  -0.000   0.000   3.592  -0.000   0.000
 -0.001  -0.001  -0.000   2.137   0.000  -0.000   3.591   0.000
 -0.000  -0.000   0.000   0.000   2.138   0.000   0.000   3.592
  0.000   0.000  -0.000  -0.000  -0.003  -0.000  -0.000  -0.005
 -0.000  -0.000  -0.002   0.000  -0.000  -0.003   0.000  -0.000
 -0.001  -0.001  -0.000   0.004   0.000  -0.000   0.006   0.000
  0.000   0.000  -0.000  -0.000  -0.002  -0.000  -0.000  -0.003
 -0.000  -0.000  -0.003   0.000  -0.000  -0.005   0.000  -0.000
 total augmentation occupancy for first ion, spin component:           1
  6.954  -3.511   0.000  -0.004   0.000   0.000   0.002   0.000  -0.000   0.000  -0.013   0.000  -0.000
 -3.511   1.937   0.000   0.010  -0.000   0.000  -0.003   0.000   0.000  -0.000   0.004   0.000   0.000
  0.000   0.000   3.566   0.000   0.000  -0.968   0.000  -0.000   0.000  -0.277  -0.000   0.000  -0.405
 -0.004   0.010  -0.000   3.477   0.000   0.000  -0.944   0.000  -0.000   0.000   0.479  -0.000   0.000
  0.000  -0.000   0.000   0.000   3.566  -0.000   0.000  -0.968  -0.405  -0.000   0.000  -0.277  -0.000
 -0.000   0.000  -0.968   0.000  -0.000   0.278  -0.000   0.000  -0.000   0.073   0.000   0.000   0.106
  0.002  -0.003   0.000  -0.944  -0.000   0.000   0.270  -0.000   0.000   0.000  -0.126   0.000  -0.000
  0.000  -0.000  -0.000   0.000  -0.968   0.000   0.000   0.278   0.106   0.000  -0.000   0.073   0.000
 -0.000   0.000   0.000  -0.000  -0.405  -0.000   0.000   0.106   0.109  -0.000  -0.000   0.041   0.000
  0.000   0.000  -0.277  -0.000   0.000   0.073   0.000   0.000   0.000   0.076   0.000   0.000   0.041
 -0.013   0.004  -0.000   0.479   0.000   0.000  -0.126  -0.000  -0.000   0.000   0.137  -0.000   0.000
  0.000   0.000  -0.000  -0.000  -0.277   0.000   0.000   0.073   0.041   0.000  -0.000   0.076   0.000
 -0.000   0.000  -0.405   0.000  -0.000   0.106  -0.000   0.000   0.000   0.041   0.000   0.000   0.109


------------------------ aborting loop because EDIFF is reached ----------------------------------------


 


 total charge     
 
# of ion     s       p       d       tot
----------------------------------------
  1        0.993   1.336   0.353   2.682
  2        0.997   1.336   0.352   2.685
  3        1.239   2.433   0.000   3.672
  4        1.238   2.435   0.000   3.673
------------------------------------------------
tot        4.467   7.540   0.705  12.711
 
    CHARGE:  cpu time    0.01: real time    0.01
    FORLOC:  cpu time    0.00: real time    0.00
    FORNL :  cpu time    0.10: real time    0.10
    STRESS:  cpu time    0.30: real time    0.30
    FORCOR:  cpu time    0.01: real time    0.01
    FORHAR:  cpu time    0.00: real time    0.00
    MIXING:  cpu time    0.00: real time    0.00

  FORCE on cell =-STRESS in cart. coord.  units (eV):
  Direction    XX          YY          ZZ          XY          YZ          ZX
  --------------------------------------------------------------------------------------
  Alpha Z    53.64534    53.64534    53.64534
  Ewald    -189.92537  -189.92467  -184.00720     0.00061     0.00000    -0.00000
  Hartree    51.89970    51.89967    55.06876    -0.00003    -0.00000     0.00001
  E(xc)     -66.20155   -66.20156   -66.06827    -0.00001    -0.00000     0.00001
  Local     -82.52932   -82.52975   -91.36998    -0.00037    -0.00002     0.00004
  n-local    -4.03239    -5.30044    -5.00419     1.64664     0.14617     0.21010
  augment     7.52698     7.52701     7.46615     0.00002    -0.00000     0.00000
  Kinetic   225.51835   233.23814   229.10580    -7.60640    -0.66301    -0.99597
  Fock        0.00000     0.00000     0.00000     0.00000     0.00000     0.00000
  -------------------------------------------------------------------------------------
  Total      -0.87226    -0.87226    -1.16360     0.00000    -0.00000     0.00000
  in kB     -28.92017   -28.92018   -38.57981     0.00000    -0.00000     0.00000
  external pressure =      -32.14 kB  Pullay stress =        0.00 kB


 VOLUME and BASIS-vectors are now :
 -----------------------------------------------------------------------------
  energy-cutoff  :      400.00
  volume of cell :       48.32
      direct lattice vectors                 reciprocal lattice vectors
     3.247505432  0.000000000  0.000000000     0.307928661  0.177782686  0.000000000
    -1.623752716  2.812422358  0.000000000     0.000000000  0.355565371  0.000000000
     0.000000000  0.000000000  5.290818010     0.000000000  0.000000000  0.189006690

  length of vectors
     3.247505432  3.247505566  5.290818010     0.355565386  0.355565371  0.189006690


 FORCES acting on ions
    electron-ion (+dipol)            ewald-force                    non-local-force                 convergence-correction
 -----------------------------------------------------------------------------------------------
   0.262E-04 -.192E-04 -.909E+00   0.169E-03 -.926E-04 0.910E+00   0.820E-17 -.304E-18 0.252E-02   0.602E-07 -.350E-07 0.576E-04
   -.145E-04 0.124E-04 -.909E+00   -.169E-03 0.926E-04 0.910E+00   -.607E-17 0.411E-17 0.252E-02   -.651E-07 0.378E-07 0.576E-04
   0.653E-03 -.378E-03 0.536E+00   0.178E-03 -.973E-04 -.910E+00   -.117E-16 0.145E-18 0.373E+00   0.150E-06 -.889E-07 0.130E-04
   -.167E-02 0.965E-03 0.536E+00   -.178E-03 0.973E-04 -.910E+00   0.547E-17 -.117E-17 0.373E+00   -.206E-06 0.121E-06 0.130E-04
 -----------------------------------------------------------------------------------------------
   -.100E-02 0.580E-03 -.745E+00   -.118E-14 -.175E-14 0.444E-15   -.411E-17 0.279E-17 0.750E+00   -.608E-07 0.351E-07 0.141E-03
 
 
 POSITION                                       TOTAL-FORCE (eV/Angst)
 -----------------------------------------------------------------------------------
     -0.00000      1.87495      5.28616         0.000000      0.000000      0.002018
      1.62375      0.93747      2.64075        -0.000000      0.000000      0.002018
     -0.00000      1.87495      1.98871         0.000000     -0.000000     -0.002018
      1.62375      0.93747      4.63412        -0.000000      0.000000     -0.002018
 -----------------------------------------------------------------------------------
    total drift:                               -0.001005      0.000580      0.004788


--------------------------------------------------------------------------------------------------------



  FREE ENERGIE OF THE ION-ELECTRON SYSTEM (eV)
  ---------------------------------------------------
  free  energy   TOTEN  =       -24.28188581 eV

  energy  without entropy=      -24.28193759  energy(sigma->0) =      -24.28190307
 


--------------------------------------------------------------------------------------------------------


    POTLOK:  cpu time    0.01: real time    0.01


--------------------------------------------------------------------------------------------------------


 writing wavefunctions
     LOOP+:  cpu time    1.36: real time    1.41
    4ORBIT:  cpu time    0.00: real time    0.00
 


 total charge     
 
# of ion     s       p       d       tot
----------------------------------------
  1        0.993   1.336   0.353   2.682
  2        0.997   1.336   0.352   2.685
  3        1.239   2.433   0.000   3.672
  4        1.238   2.435   0.000   3.673
------------------------------------------------
tot        4.467   7.540   0.705  12.711
 

 total amount of memory used by VASP on root node    35145. kBytes
========================================================================

   base      :      30000. kBytes
   nonlr-proj:       3053. kBytes
   fftplans  :        449. kBytes
   grid      :       1430. kBytes
   one-center:         32. kBytes
   wavefun   :        181. kBytes
 
  
  
 General timing and accounting informations for this job:
 ========================================================
  
                  Total CPU time used (sec):        1.871
                            User time (sec):        1.768
                          System time (sec):        0.103
                         Elapsed time (sec):        1.958
  
                   Maximum memory used (kb):       50520.
                   Average memory used (kb):           0.
  
                          Minor page faults:         7782
                          Major page faults:            0
                 Voluntary context switches:          819
