PROCAR lm decomposed
# of k-points:   12         # of bands:  16         # of ions:   4

 k-point    1 :    0.00000000 0.00000000 0.00000000     weight = 0.01562500

band   1 # energy  -12.91927851 # occ.  2.00000000
 
ion      s     py     pz     px    dxy    dyz    dz2    dxz    dx2    tot
  1  0.169  0.000  0.000  0.000  0.000  0.000  0.000  0.000  0.000  0.169
  2  0.169  0.000  0.000  0.000  0.000  0.000  0.000  0.000  0.000  0.169
  3  0.227  0.000  0.000  0.000  0.000  0.000  0.000  0.000  0.000  0.227
  4  0.227  0.000  0.000  0.000  0.000  0.000  0.000  0.000  0.000  0.227
tot  0.791  0.000  0.000  0.000  0.000  0.000  0.000  0.000  0.000  0.791
 
band   2 # energy  -10.77668273 # occ.  2.00000000
 
ion      s     py     pz     px    dxy    dyz    dz2    dxz    dx2    tot
  1  0.057  0.000  0.053  0.000  0.000  0.000  0.017  0.000  0.000  0.126
  2  0.057  0.000  0.053  0.000  0.000  0.000  0.017  0.000  0.000  0.126
  3  0.292  0.000  0.000  0.000  0.000  0.000  0.000  0.000  0.000  0.292
  4  0.292  0.000  0.000  0.000  0.000  0.000  0.000  0.000  0.000  0.292
tot  0.696  0.000  0.106  0.000  0.000  0.000  0.034  0.000  0.000  0.836
 
band   3 # energy   -4.10148688 # occ.  2.00000000
 
ion      s     py     pz     px    dxy    dyz    dz2    dxz    dx2    tot
  1  0.154  0.000  0.089  0.000  0.000  0.000  0.001  0.000  0.000  0.245
  2  0.154  0.000  0.089  0.000  0.000  0.000  0.001  0.000  0.000  0.245
  3  0.002  0.000  0.122  0.000  0.000  0.000  0.000  0.000  0.000  0.125
  4  0.002  0.000  0.122  0.000  0.000  0.000  0.000  0.000  0.000  0.125
tot  0.313  0.000  0.424  0.000  0.000  0.000  0.002  0.000  0.000  0.738
 
band   4 # energy    1.59657702 # occ.  2.00000000
 
ion      s     py     pz     px    dxy    dyz    dz2    dxz    dx2    tot
  1  0.000  0.071  0.000  0.024  0.010  0.001  0.000  0.000  0.030  0.136
  2  0.000  0.071  0.000  0.024  0.010  0.001  0.000  0.000  0.030  0.136
  3  0.000  0.204  0.000  0.068  0.000  0.000  0.000  0.000  0.000  0.272
  4  0.000  0.204  0.000  0.068  0.000  0.000  0.000  0.000  0.000  0.272
tot  0.000  0.551  0.000  0.184  0.020  0.002  0.000  0.001  0.059  0.816
 
band   5 # energy    1.59661380 # occ.  2.00000000
 
ion      s     py     pz     px    dxy    dyz    dz2    dxz    dx2    tot
  1  0.000  0.024  0.000  0.071  0.030  0.000  0.000  0.001  0.010  0.136
  2  0.000  0.024  0.000  0.071  0.030  0.000  0.000  0.001  0.010  0.136
  3  0.000  0.068  0.000  0.204  0.000  0.000  0.000  0.000  0.000  0.272
  4  0.000  0.068  0.000  0.204  0.000  0.000  0.000  0.000  0.000  0.272
tot  0.000  0.184  0.000  0.551  0.059  0.001  0.000  0.002  0.020  0.816
 
band   6 # energy    2.51776050 # occ.  2.01090611
 
ion      s     py     pz     px    dxy    dyz    dz2    dxz    dx2    tot
  1  0.000  0.000  0.034  0.000  0.000  0.000  0.065  0.000  0.000  0.099
  2  0.000  0.000  0.034  0.000  0.000  0.000  0.065  0.000  0.000  0.099
  3  0.000  0.000  0.305  0.000  0.000  0.000  0.000  0.000  0.000  0.305
  4  0.000  0.000  0.305  0.000  0.000  0.000  0.000  0.000  0.000  0.305
tot  0.001  0.000  0.676  0.000  0.000  0.000  0.130  0.000  0.000  0.807
 
band   7 # energy    2.54983597 # occ.  1.99472467
 
ion      s     py     pz     px    dxy    dyz    dz2    dxz    dx2    tot
  1  0.000  0.022  0.000  0.007  0.012  0.016  0.000  0.005  0.036  0.099
  2  0.000  0.022  0.000  0.007  0.012  0.016  0.000  0.005  0.036  0.099
  3  0.000  0.230  0.000  0.077  0.000  0.000  0.000  0.000  0.000  0.307
  4  0.000  0.230  0.000  0.077  0.000  0.000  0.000  0.000  0.000  0.307
tot  0.000  0.504  0.000  0.170  0.024  0.032  0.000  0.011  0.072  0.813
 
band   8 # energy    2.54985529 # occ.  1.99436922
 
ion      s     py     pz     px    dxy    dyz    dz2    dxz    dx2    tot
  1  0.000  0.007  0.000  0.022  0.036  0.005  0.000  0.016  0.012  0.099
  2  0.000  0.007  0.000  0.022  0.036  0.005  0.000  0.016  0.012  0.099
  3  0.000  0.077  0.000  0.230  0.000  0.000  0.000  0.000  0.000  0.307
  4  0.000  0.077  0.000  0.230  0.000  0.000  0.000  0.000  0.000  0.307
tot  0.000  0.170  0.000  0.504  0.072  0.011  0.000  0.032  0.024  0.813
 
band   9 # energy    4.13937211 # occ.  0.00000000
 
ion      s     py     pz     px    dxy    dyz    dz2    dxz    dx2    tot
  1  0.144  0.000  0.001  0.000  0.000  0.000  0.000  0.000  0.000  0.145
  2  0.144  0.000  0.001  0.000  0.000  0.000  0.000  0.000  0.000  0.145
  3  0.177  0.000  0.000  0.000  0.000  0.000  0.000  0.000  0.000  0.177
  4  0.177  0.000  0.000  0.000  0.000  0.000  0.000  0.000  0.000  0.177
tot  0.642  0.000  0.002  0.000  0.000  0.000  0.000  0.000  0.000  0.644
 
band  10 # energy    6.50975926 # occ.  0.00000000
 
ion      s     py     pz     px    dxy    dyz    dz2    dxz    dx2    tot
  1  0.184  0.000  0.049  0.000  0.000  0.000  0.015  0.000  0.000  0.247
  2  0.184  0.000  0.049  0.000  0.000  0.000  0.015  0.000  0.000  0.247
  3  0.081  0.000  0.012  0.000  0.000  0.000  0.000  0.000  0.000  0.093
  4  0.081  0.000  0.012  0.000  0.000  0.000  0.000  0.000  0.000  0.093
tot  0.528  0.000  0.122  0.000  0.000  0.000  0.029  0.000  0.000  0.680
 
band  11 # energy   11.48005772 # occ.  0.00000000
 
ion      s     py     pz     px    dxy    dyz    dz2    dxz    dx2    tot
  1  0.009  0.000  0.029  0.000  0.000  0.000  0.031  0.000  0.000  0.070
  2  0.009  0.000  0.029  0.000  0.000  0.000  0.031  0.000  0.000  0.070
  3  0.002  0.000  0.234  0.000  0.000  0.000  0.000  0.000  0.000  0.236
  4  0.002  0.000  0.234  0.000  0.000  0.000  0.000  0.000  0.000  0.236
tot  0.022  0.000  0.527  0.000  0.000  0.000  0.062  0.000  0.000  0.611
 
band  12 # energy   12.19638365 # occ.  0.00000000
 
ion      s     py     pz     px    dxy    dyz    dz2    dxz    dx2    tot
  1  0.000  0.093  0.000  0.256  0.020  0.000  0.000  0.000  0.007  0.375
  2  0.000  0.093  0.000  0.256  0.020  0.000  0.000  0.000  0.007  0.375
  3  0.000  0.000  0.000  0.000  0.000  0.000  0.000  0.000  0.000  0.000
  4  0.000  0.000  0.000  0.000  0.000  0.000  0.000  0.000  0.000  0.000
tot  0.000  0.185  0.000  0.511  0.039  0.000  0.000  0.000  0.014  0.750
 
band  13 # energy   12.19640499 # occ.  0.00000000
 
ion      s     py     pz     px    dxy    dyz    dz2    dxz    dx2    tot
  1  0.000  0.256  0.000  0.093  0.007  0.000  0.000  0.000  0.020  0.375
  2  0.000  0.256  0.000  0.092  0.007  0.000  0.000  0.000  0.020  0.375
  3  0.000  0.000  0.000  0.000  0.000  0.000  0.000  0.000  0.000  0.000
  4  0.000  0.000  0.000  0.000  0.000  0.000  0.000  0.000  0.000  0.000
tot  0.000  0.511  0.000  0.185  0.014  0.000  0.000  0.000  0.039  0.750
 
band  14 # energy   12.96856994 # occ.  0.00000000
 
ion      s     py     pz     px    dxy    dyz    dz2    dxz    dx2    tot
  1  0.000  0.000  0.368  0.000  0.000  0.000  0.004  0.000  0.000  0.372
  2  0.000  0.000  0.368  0.000  0.000  0.000  0.004  0.000  0.000  0.372
  3  0.000  0.000  0.004  0.000  0.000  0.000  0.000  0.000  0.000  0.004
  4  0.000  0.000  0.004  0.000  0.000  0.000  0.000  0.000  0.000  0.004
tot  0.001  0.000  0.743  0.000  0.000  0.000  0.008  0.000  0.000  0.751
 
band  15 # energy   13.90848158 # occ.  0.00000000
 
ion      s     py     pz     px    dxy    dyz    dz2    dxz    dx2    tot
  1  0.000  0.076  0.000  0.221  0.027  0.000  0.000  0.001  0.009  0.335
  2  0.000  0.076  0.000  0.221  0.027  0.000  0.000  0.001  0.009  0.335
  3  0.000  0.009  0.000  0.027  0.000  0.000  0.000  0.000  0.000  0.037
  4  0.000  0.009  0.000  0.027  0.000  0.000  0.000  0.000  0.000  0.037
tot  0.000  0.171  0.000  0.496  0.054  0.001  0.000  0.003  0.019  0.744
 
band  16 # energy   13.90853496 # occ.  0.00000000
 
ion      s     py     pz     px    dxy    dyz    dz2    dxz    dx2    tot
  1  0.000  0.221  0.000  0.076  0.009  0.001  0.000  0.000  0.027  0.335
  2  0.000  0.221  0.000  0.076  0.009  0.001  0.000  0.000  0.027  0.335
  3  0.000  0.027  0.000  0.009  0.000  0.000  0.000  0.000  0.000  0.037
  4  0.000  0.027  0.000  0.009  0.000  0.000  0.000  0.000  0.000  0.037
tot  0.000  0.496  0.000  0.171  0.019  0.003  0.000  0.001  0.054  0.744
 

 k-point    2 :    0.25000000-0.00000000 0.00000000     weight = 0.09375000

band   1 # energy  -12.16148411 # occ.  2.00000000
 
ion      s     py     pz     px    dxy    dyz    dz2    dxz    dx2    tot
  1  0.133  0.005  0.000  0.016  0.002  0.000  0.000  0.001  0.001  0.159
  2  0.133  0.005  0.000  0.016  0.002  0.000  0.000  0.001  0.001  0.159
  3  0.242  0.000  0.000  0.001  0.000  0.000  0.000  0.000  0.000  0.244
  4  0.242  0.000  0.000  0.001  0.000  0.000  0.000  0.000  0.000  0.244
tot  0.749  0.012  0.000  0.035  0.004  0.001  0.000  0.002  0.001  0.805
 
band   2 # energy  -10.33849046 # occ.  2.00000000
 
ion      s     py     pz     px    dxy    dyz    dz2    dxz    dx2    tot
  1  0.026  0.006  0.043  0.019  0.003  0.001  0.014  0.002  0.001  0.115
  2  0.026  0.006  0.043  0.019  0.003  0.001  0.014  0.002  0.001  0.115
  3  0.307  0.000  0.000  0.000  0.000  0.000  0.000  0.000  0.000  0.307
  4  0.307  0.000  0.000  0.000  0.000  0.000  0.000  0.000  0.000  0.307
tot  0.665  0.013  0.086  0.038  0.006  0.001  0.028  0.004  0.002  0.844
 
band   3 # energy   -3.36173895 # occ.  2.00000000
 
ion      s     py     pz     px    dxy    dyz    dz2    dxz    dx2    tot
  1  0.187  0.001  0.060  0.003  0.000  0.000  0.000  0.001  0.000  0.253
  2  0.187  0.001  0.060  0.003  0.000  0.000  0.000  0.001  0.000  0.253
  3  0.003  0.003  0.121  0.008  0.000  0.000  0.000  0.000  0.000  0.134
  4  0.003  0.003  0.121  0.008  0.000  0.000  0.000  0.000  0.000  0.134
tot  0.380  0.007  0.362  0.021  0.001  0.001  0.000  0.003  0.000  0.774
 
band   4 # energy   -1.25292343 # occ.  2.00000000
 
ion      s     py     pz     px    dxy    dyz    dz2    dxz    dx2    tot
  1  0.047  0.021  0.040  0.062  0.014  0.000  0.000  0.000  0.005  0.189
  2  0.047  0.021  0.040  0.062  0.014  0.000  0.000  0.000  0.005  0.189
  3  0.015  0.038  0.013  0.115  0.000  0.000  0.000  0.000  0.000  0.181
  4  0.015  0.038  0.013  0.115  0.000  0.000  0.000  0.000  0.000  0.181
tot  0.125  0.118  0.105  0.354  0.028  0.000  0.001  0.001  0.009  0.741
 
band   5 # energy   -0.33329470 # occ.  2.00000000
 
ion      s     py     pz     px    dxy    dyz    dz2    dxz    dx2    tot
  1  0.092  0.007  0.017  0.021  0.018  0.004  0.000  0.012  0.006  0.176
  2  0.092  0.007  0.017  0.021  0.018  0.004  0.000  0.012  0.006  0.176
  3  0.048  0.042  0.004  0.126  0.000  0.000  0.000  0.000  0.000  0.219
  4  0.048  0.042  0.004  0.126  0.000  0.000  0.000  0.000  0.000  0.219
tot  0.279  0.098  0.042  0.293  0.035  0.008  0.001  0.024  0.012  0.791
 
band   6 # energy    0.72041440 # occ.  2.00000000
 
ion      s     py     pz     px    dxy    dyz    dz2    dxz    dx2    tot
  1  0.000  0.099  0.000  0.033  0.005  0.002  0.000  0.001  0.016  0.156
  2  0.000  0.099  0.000  0.033  0.005  0.002  0.000  0.001  0.016  0.156
  3  0.000  0.182  0.000  0.061  0.000  0.000  0.000  0.000  0.000  0.242
  4  0.000  0.182  0.000  0.061  0.000  0.000  0.000  0.000  0.000  0.242
tot  0.000  0.562  0.000  0.187  0.011  0.003  0.000  0.001  0.032  0.796
 
band   7 # energy    1.89663035 # occ.  2.00000000
 
ion      s     py     pz     px    dxy    dyz    dz2    dxz    dx2    tot
  1  0.003  0.006  0.047  0.018  0.003  0.001  0.041  0.002  0.001  0.122
  2  0.003  0.006  0.047  0.018  0.003  0.001  0.041  0.002  0.001  0.122
  3  0.000  0.000  0.276  0.001  0.000  0.000  0.000  0.000  0.000  0.277
  4  0.000  0.000  0.276  0.001  0.000  0.000  0.000  0.000  0.000  0.277
tot  0.006  0.013  0.646  0.039  0.005  0.002  0.082  0.005  0.002  0.798
 
band   8 # energy    2.09372162 # occ.  2.00000000
 
ion      s     py     pz     px    dxy    dyz    dz2    dxz    dx2    tot
  1  0.000  0.049  0.000  0.016  0.006  0.020  0.000  0.007  0.019  0.117
  2  0.000  0.049  0.000  0.016  0.006  0.020  0.000  0.007  0.019  0.117
  3  0.000  0.217  0.000  0.072  0.000  0.000  0.000  0.000  0.000  0.290
  4  0.000  0.217  0.000  0.072  0.000  0.000  0.000  0.000  0.000  0.290
tot  0.000  0.532  0.000  0.177  0.013  0.040  0.000  0.013  0.039  0.814
 
band   9 # energy    6.56395471 # occ.  0.00000000
 
ion      s     py     pz     px    dxy    dyz    dz2    dxz    dx2    tot
  1  0.081  0.010  0.012  0.029  0.001  0.000  0.001  0.001  0.000  0.135
  2  0.081  0.010  0.012  0.029  0.001  0.000  0.001  0.001  0.000  0.135
  3  0.094  0.027  0.000  0.080  0.000  0.000  0.000  0.000  0.000  0.200
  4  0.094  0.027  0.000  0.080  0.000  0.000  0.000  0.000  0.000  0.200
tot  0.351  0.072  0.024  0.217  0.001  0.001  0.002  0.002  0.000  0.670
 
band  10 # energy    8.22311124 # occ.  0.00000000
 
ion      s     py     pz     px    dxy    dyz    dz2    dxz    dx2    tot
  1  0.145  0.013  0.027  0.040  0.014  0.001  0.010  0.002  0.005  0.257
  2  0.145  0.013  0.027  0.040  0.014  0.001  0.010  0.002  0.005  0.257
  3  0.035  0.009  0.013  0.027  0.000  0.000  0.000  0.000  0.000  0.084
  4  0.035  0.009  0.013  0.027  0.000  0.000  0.000  0.000  0.000  0.084
tot  0.362  0.045  0.080  0.134  0.027  0.001  0.020  0.003  0.009  0.682
 
band  11 # energy    9.76598338 # occ.  0.00000000
 
ion      s     py     pz     px    dxy    dyz    dz2    dxz    dx2    tot
  1  0.041  0.022  0.004  0.067  0.012  0.003  0.010  0.009  0.004  0.172
  2  0.041  0.022  0.004  0.067  0.012  0.003  0.010  0.009  0.004  0.172
  3  0.001  0.006  0.099  0.018  0.000  0.000  0.000  0.000  0.000  0.124
  4  0.001  0.006  0.099  0.018  0.000  0.000  0.000  0.000  0.000  0.124
tot  0.083  0.057  0.206  0.170  0.024  0.006  0.020  0.018  0.008  0.592
 
band  12 # energy   10.86803928 # occ.  0.00000000
 
ion      s     py     pz     px    dxy    dyz    dz2    dxz    dx2    tot
  1  0.040  0.013  0.031  0.040  0.037  0.002  0.025  0.005  0.012  0.205
  2  0.040  0.013  0.031  0.040  0.037  0.002  0.025  0.005  0.012  0.205
  3  0.000  0.026  0.013  0.078  0.000  0.000  0.000  0.000  0.000  0.117
  4  0.000  0.026  0.013  0.078  0.000  0.000  0.000  0.000  0.000  0.117
tot  0.081  0.079  0.088  0.236  0.073  0.003  0.049  0.010  0.024  0.644
 
band  13 # energy   12.37780655 # occ.  0.00000000
 
ion      s     py     pz     px    dxy    dyz    dz2    dxz    dx2    tot
  1  0.029  0.020  0.071  0.061  0.002  0.001  0.024  0.004  0.001  0.215
  2  0.029  0.020  0.071  0.061  0.002  0.001  0.024  0.004  0.001  0.215
  3  0.014  0.002  0.099  0.005  0.000  0.000  0.000  0.000  0.000  0.120
  4  0.014  0.002  0.099  0.005  0.000  0.000  0.000  0.000  0.000  0.120
tot  0.085  0.044  0.341  0.133  0.005  0.003  0.048  0.009  0.002  0.668
 
band  14 # energy   12.98079960 # occ.  0.00000000
 
ion      s     py     pz     px    dxy    dyz    dz2    dxz    dx2    tot
  1  0.000  0.238  0.000  0.079  0.002  0.025  0.000  0.008  0.005  0.356
  2  0.000  0.238  0.000  0.079  0.002  0.025  0.000  0.008  0.005  0.356
  3  0.000  0.013  0.000  0.004  0.000  0.000  0.000  0.000  0.000  0.017
  4  0.000  0.013  0.000  0.004  0.000  0.000  0.000  0.000  0.000  0.017
tot  0.000  0.501  0.000  0.167  0.003  0.049  0.000  0.016  0.010  0.746
 
band  15 # energy   13.68922409 # occ.  0.00000000
 
ion      s     py     pz     px    dxy    dyz    dz2    dxz    dx2    tot
  1  0.002  0.013  0.099  0.038  0.027  0.005  0.036  0.014  0.009  0.241
  2  0.002  0.013  0.099  0.038  0.027  0.005  0.036  0.014  0.009  0.241
  3  0.012  0.009  0.011  0.026  0.000  0.000  0.000  0.000  0.000  0.058
  4  0.012  0.009  0.011  0.026  0.000  0.000  0.000  0.000  0.000  0.058
tot  0.027  0.042  0.221  0.127  0.053  0.009  0.073  0.027  0.018  0.596
 
band  16 # energy   14.84286557 # occ.  0.00000000
 
ion      s     py     pz     px    dxy    dyz    dz2    dxz    dx2    tot
  1  0.000  0.154  0.000  0.051  0.011  0.012  0.000  0.004  0.034  0.266
  2  0.000  0.154  0.000  0.051  0.011  0.012  0.000  0.004  0.034  0.266
  3  0.000  0.071  0.000  0.024  0.000  0.000  0.000  0.000  0.000  0.095
  4  0.000  0.071  0.000  0.024  0.000  0.000  0.000  0.000  0.000  0.095
tot  0.000  0.451  0.000  0.150  0.023  0.023  0.000  0.008  0.068  0.723
 

 k-point    3 :    0.50000000-0.00000000 0.00000000     weight = 0.04687500

band   1 # energy  -10.87396789 # occ.  2.00000000
 
ion      s     py     pz     px    dxy    dyz    dz2    dxz    dx2    tot
  1  0.064  0.012  0.004  0.036  0.007  0.001  0.002  0.003  0.002  0.131
  2  0.064  0.012  0.004  0.036  0.007  0.001  0.002  0.003  0.002  0.131
  3  0.285  0.000  0.000  0.001  0.000  0.000  0.000  0.000  0.000  0.286
  4  0.285  0.000  0.000  0.001  0.000  0.000  0.000  0.000  0.000  0.286
tot  0.699  0.024  0.007  0.073  0.015  0.002  0.004  0.005  0.005  0.835
 
band   2 # energy  -10.11970370 # occ.  2.00000000
 
ion      s     py     pz     px    dxy    dyz    dz2    dxz    dx2    tot
  1  0.001  0.016  0.022  0.048  0.006  0.001  0.008  0.004  0.002  0.108
  2  0.001  0.016  0.022  0.048  0.006  0.001  0.008  0.004  0.002  0.108
  3  0.313  0.000  0.000  0.001  0.000  0.000  0.000  0.000  0.000  0.313
  4  0.313  0.000  0.000  0.001  0.000  0.000  0.000  0.000  0.000  0.313
tot  0.627  0.033  0.043  0.098  0.013  0.002  0.015  0.007  0.004  0.843
 
band   3 # energy   -3.62977340 # occ.  2.00000000
 
ion      s     py     pz     px    dxy    dyz    dz2    dxz    dx2    tot
  1  0.204  0.006  0.013  0.019  0.004  0.000  0.001  0.000  0.001  0.251
  2  0.204  0.006  0.013  0.019  0.004  0.000  0.001  0.000  0.001  0.251
  3  0.008  0.030  0.005  0.091  0.000  0.000  0.000  0.000  0.000  0.135
  4  0.008  0.030  0.005  0.091  0.000  0.000  0.000  0.000  0.000  0.135
tot  0.426  0.074  0.037  0.221  0.008  0.000  0.003  0.000  0.003  0.772
 
band   4 # energy   -2.54070360 # occ.  2.00000000
 
ion      s     py     pz     px    dxy    dyz    dz2    dxz    dx2    tot
  1  0.182  0.009  0.014  0.027  0.000  0.002  0.000  0.007  0.000  0.242
  2  0.182  0.009  0.014  0.027  0.000  0.002  0.000  0.007  0.000  0.242
  3  0.018  0.034  0.007  0.103  0.000  0.000  0.000  0.000  0.000  0.162
  4  0.018  0.034  0.007  0.103  0.000  0.000  0.000  0.000  0.000  0.162
tot  0.400  0.087  0.041  0.260  0.000  0.005  0.001  0.015  0.000  0.809
 
band   5 # energy   -1.37950370 # occ.  2.00000000
 
ion      s     py     pz     px    dxy    dyz    dz2    dxz    dx2    tot
  1  0.049  0.013  0.092  0.038  0.002  0.001  0.002  0.002  0.001  0.199
  2  0.049  0.013  0.092  0.038  0.002  0.001  0.002  0.002  0.001  0.199
  3  0.001  0.002  0.169  0.006  0.000  0.000  0.000  0.000  0.000  0.177
  4  0.001  0.002  0.169  0.006  0.000  0.000  0.000  0.000  0.000  0.177
tot  0.099  0.029  0.522  0.088  0.005  0.002  0.003  0.005  0.002  0.754
 
band   6 # energy    0.03458793 # occ.  2.00000000
 
ion      s     py     pz     px    dxy    dyz    dz2    dxz    dx2    tot
  1  0.000  0.119  0.000  0.040  0.002  0.002  0.000  0.001  0.005  0.167
  2  0.000  0.119  0.000  0.040  0.002  0.002  0.000  0.001  0.005  0.167
  3  0.000  0.169  0.000  0.056  0.000  0.000  0.000  0.000  0.000  0.225
  4  0.000  0.169  0.000  0.056  0.000  0.000  0.000  0.000  0.000  0.225
tot  0.000  0.576  0.000  0.192  0.003  0.004  0.000  0.001  0.009  0.785
 
band   7 # energy    0.49857252 # occ.  2.00000000
 
ion      s     py     pz     px    dxy    dyz    dz2    dxz    dx2    tot
  1  0.005  0.010  0.081  0.031  0.003  0.003  0.013  0.010  0.001  0.157
  2  0.005  0.010  0.081  0.031  0.003  0.003  0.013  0.010  0.001  0.157
  3  0.001  0.003  0.202  0.009  0.000  0.000  0.000  0.000  0.000  0.215
  4  0.001  0.003  0.202  0.009  0.000  0.000  0.000  0.000  0.000  0.215
tot  0.011  0.026  0.568  0.079  0.007  0.006  0.026  0.019  0.002  0.743
 
band   8 # energy    1.63269848 # occ.  2.00000000
 
ion      s     py     pz     px    dxy    dyz    dz2    dxz    dx2    tot
  1  0.000  0.070  0.000  0.023  0.002  0.022  0.000  0.007  0.006  0.131
  2  0.000  0.070  0.000  0.023  0.002  0.022  0.000  0.007  0.006  0.131
  3  0.000  0.206  0.000  0.069  0.000  0.000  0.000  0.000  0.000  0.275
  4  0.000  0.206  0.000  0.069  0.000  0.000  0.000  0.000  0.000  0.275
tot  0.000  0.553  0.000  0.184  0.004  0.044  0.000  0.015  0.012  0.813
 
band   9 # energy    7.50250131 # occ.  0.00000000
 
ion      s     py     pz     px    dxy    dyz    dz2    dxz    dx2    tot
  1  0.102  0.014  0.037  0.042  0.044  0.000  0.007  0.000  0.015  0.262
  2  0.102  0.014  0.037  0.042  0.044  0.000  0.007  0.000  0.015  0.262
  3  0.022  0.000  0.009  0.000  0.000  0.000  0.000  0.000  0.000  0.030
  4  0.022  0.000  0.009  0.000  0.000  0.000  0.000  0.000  0.000  0.030
tot  0.249  0.028  0.092  0.084  0.088  0.000  0.014  0.001  0.029  0.585
 
band  10 # energy    7.81526760 # occ.  0.00000000
 
ion      s     py     pz     px    dxy    dyz    dz2    dxz    dx2    tot
  1  0.114  0.015  0.000  0.046  0.013  0.000  0.006  0.000  0.004  0.200
  2  0.114  0.015  0.000  0.046  0.013  0.000  0.006  0.000  0.004  0.200
  3  0.071  0.016  0.001  0.048  0.000  0.000  0.000  0.000  0.000  0.136
  4  0.071  0.016  0.001  0.048  0.000  0.000  0.000  0.000  0.000  0.136
tot  0.372  0.063  0.002  0.188  0.026  0.000  0.013  0.000  0.009  0.672
 
band  11 # energy    8.52029924 # occ.  0.00000000
 
ion      s     py     pz     px    dxy    dyz    dz2    dxz    dx2    tot
  1  0.030  0.011  0.009  0.033  0.017  0.008  0.028  0.023  0.006  0.165
  2  0.030  0.011  0.009  0.033  0.017  0.008  0.028  0.023  0.006  0.165
  3  0.000  0.004  0.095  0.012  0.000  0.000  0.000  0.000  0.000  0.111
  4  0.000  0.004  0.095  0.012  0.000  0.000  0.000  0.000  0.000  0.111
tot  0.061  0.030  0.208  0.089  0.034  0.016  0.057  0.047  0.011  0.552
 
band  12 # energy   10.77111591 # occ.  0.00000000
 
ion      s     py     pz     px    dxy    dyz    dz2    dxz    dx2    tot
  1  0.094  0.003  0.012  0.008  0.001  0.002  0.000  0.006  0.000  0.128
  2  0.094  0.003  0.012  0.008  0.001  0.002  0.000  0.006  0.000  0.128
  3  0.008  0.049  0.031  0.146  0.000  0.000  0.000  0.000  0.000  0.233
  4  0.008  0.049  0.031  0.146  0.000  0.000  0.000  0.000  0.000  0.233
tot  0.205  0.103  0.087  0.308  0.003  0.004  0.000  0.012  0.001  0.722
 
band  13 # energy   12.60251672 # occ.  0.00000000
 
ion      s     py     pz     px    dxy    dyz    dz2    dxz    dx2    tot
  1  0.011  0.001  0.054  0.004  0.000  0.005  0.070  0.014  0.000  0.159
  2  0.011  0.001  0.054  0.004  0.000  0.005  0.070  0.014  0.000  0.159
  3  0.000  0.009  0.137  0.026  0.000  0.000  0.000  0.000  0.000  0.172
  4  0.000  0.009  0.137  0.026  0.000  0.000  0.000  0.000  0.000  0.172
tot  0.022  0.020  0.383  0.059  0.000  0.009  0.140  0.028  0.000  0.662
 
band  14 # energy   12.71335387 # occ.  0.00000000
 
ion      s     py     pz     px    dxy    dyz    dz2    dxz    dx2    tot
  1  0.000  0.176  0.000  0.059  0.000  0.065  0.000  0.022  0.001  0.323
  2  0.000  0.176  0.000  0.059  0.000  0.065  0.000  0.022  0.001  0.323
  3  0.000  0.013  0.000  0.004  0.000  0.000  0.000  0.000  0.000  0.017
  4  0.000  0.013  0.000  0.004  0.000  0.000  0.000  0.000  0.000  0.017
tot  0.000  0.378  0.000  0.126  0.000  0.131  0.000  0.044  0.001  0.681
 
band  15 # energy   14.69677510 # occ.  0.00000000
 
ion      s     py     pz     px    dxy    dyz    dz2    dxz    dx2    tot
  1  0.004  0.004  0.022  0.012  0.024  0.012  0.007  0.037  0.008  0.130
  2  0.004  0.004  0.022  0.012  0.024  0.012  0.007  0.037  0.008  0.130
  3  0.000  0.026  0.000  0.079  0.000  0.000  0.000  0.000  0.000  0.106
  4  0.000  0.026  0.000  0.079  0.000  0.000  0.000  0.000  0.000  0.106
tot  0.009  0.061  0.044  0.182  0.047  0.025  0.015  0.074  0.016  0.472
 
band  16 # energy   15.37010358 # occ.  0.00000000
 
ion      s     py     pz     px    dxy    dyz    dz2    dxz    dx2    tot
  1  0.001  0.005  0.272  0.016  0.004  0.003  0.028  0.009  0.001  0.339
  2  0.001  0.005  0.272  0.016  0.004  0.003  0.028  0.009  0.001  0.339
  3  0.010  0.010  0.011  0.031  0.000  0.000  0.000  0.000  0.000  0.062
  4  0.010  0.010  0.011  0.031  0.000  0.000  0.000  0.000  0.000  0.062
tot  0.021  0.032  0.564  0.095  0.007  0.006  0.056  0.018  0.002  0.801
 

 k-point    4 :    0.25000000 0.25000000 0.00000000     weight = 0.09375000

band   1 # energy  -10.97651571 # occ.  2.00000000
 
ion      s     py     pz     px    dxy    dyz    dz2    dxz    dx2    tot
  1  0.069  0.033  0.003  0.017  0.003  0.002  0.002  0.001  0.005  0.135
  2  0.069  0.033  0.003  0.017  0.003  0.002  0.002  0.001  0.005  0.135
  3  0.277  0.002  0.000  0.001  0.000  0.000  0.000  0.000  0.000  0.279
  4  0.277  0.002  0.000  0.001  0.000  0.000  0.000  0.000  0.000  0.279
tot  0.692  0.068  0.006  0.035  0.007  0.004  0.004  0.002  0.010  0.829
 
band   2 # energy  -10.02578398 # occ.  2.00000000
 
ion      s     py     pz     px    dxy    dyz    dz2    dxz    dx2    tot
  1  0.000  0.036  0.024  0.021  0.004  0.003  0.008  0.002  0.007  0.105
  2  0.000  0.036  0.024  0.021  0.004  0.003  0.008  0.002  0.007  0.105
  3  0.320  0.000  0.000  0.000  0.000  0.000  0.000  0.000  0.000  0.320
  4  0.320  0.000  0.000  0.000  0.000  0.000  0.000  0.000  0.000  0.320
tot  0.641  0.072  0.048  0.041  0.008  0.007  0.017  0.004  0.013  0.850
 
band   3 # energy   -2.90996887 # occ.  2.00000000
 
ion      s     py     pz     px    dxy    dyz    dz2    dxz    dx2    tot
  1  0.271  0.001  0.001  0.004  0.001  0.000  0.000  0.000  0.000  0.279
  2  0.271  0.001  0.001  0.004  0.001  0.000  0.000  0.000  0.000  0.279
  3  0.000  0.073  0.031  0.036  0.000  0.000  0.000  0.000  0.000  0.139
  4  0.000  0.073  0.031  0.036  0.000  0.000  0.000  0.000  0.000  0.139
tot  0.542  0.148  0.063  0.080  0.001  0.000  0.000  0.000  0.001  0.837
 
band   4 # energy   -2.39510614 # occ.  2.00000000
 
ion      s     py     pz     px    dxy    dyz    dz2    dxz    dx2    tot
  1  0.104  0.022  0.014  0.048  0.003  0.003  0.001  0.004  0.007  0.205
  2  0.104  0.022  0.014  0.048  0.003  0.003  0.001  0.004  0.007  0.205
  3  0.032  0.104  0.001  0.036  0.000  0.000  0.000  0.000  0.000  0.172
  4  0.032  0.104  0.001  0.036  0.000  0.000  0.000  0.000  0.000  0.172
tot  0.272  0.251  0.031  0.167  0.005  0.006  0.002  0.007  0.013  0.754
 
band   5 # energy   -1.23990189 # occ.  2.00000000
 
ion      s     py     pz     px    dxy    dyz    dz2    dxz    dx2    tot
  1  0.003  0.035  0.112  0.021  0.002  0.004  0.001  0.002  0.004  0.183
  2  0.003  0.035  0.112  0.021  0.002  0.004  0.001  0.002  0.004  0.183
  3  0.000  0.025  0.138  0.016  0.000  0.000  0.000  0.000  0.000  0.179
  4  0.000  0.025  0.138  0.016  0.000  0.000  0.000  0.000  0.000  0.179
tot  0.006  0.119  0.500  0.073  0.004  0.007  0.002  0.003  0.009  0.724
 
band   6 # energy   -1.17021164 # occ.  2.00000000
 
ion      s     py     pz     px    dxy    dyz    dz2    dxz    dx2    tot
  1  0.083  0.067  0.004  0.051  0.001  0.003  0.000  0.001  0.000  0.211
  2  0.083  0.067  0.004  0.051  0.001  0.003  0.000  0.001  0.000  0.211
  3  0.005  0.042  0.007  0.125  0.000  0.000  0.000  0.000  0.000  0.179
  4  0.005  0.042  0.007  0.125  0.000  0.000  0.000  0.000  0.000  0.179
tot  0.178  0.217  0.022  0.352  0.002  0.006  0.000  0.002  0.001  0.779
 
band   7 # energy    0.58473692 # occ.  2.00000000
 
ion      s     py     pz     px    dxy    dyz    dz2    dxz    dx2    tot
  1  0.005  0.054  0.000  0.063  0.004  0.011  0.000  0.016  0.002  0.154
  2  0.005  0.054  0.000  0.063  0.004  0.011  0.000  0.016  0.002  0.154
  3  0.001  0.081  0.001  0.149  0.000  0.000  0.000  0.000  0.000  0.232
  4  0.001  0.081  0.001  0.149  0.000  0.000  0.000  0.000  0.000  0.232
tot  0.012  0.269  0.002  0.423  0.007  0.023  0.000  0.032  0.004  0.773
 
band   8 # energy    0.77002398 # occ.  2.00000000
 
ion      s     py     pz     px    dxy    dyz    dz2    dxz    dx2    tot
  1  0.007  0.019  0.077  0.019  0.003  0.005  0.016  0.003  0.004  0.152
  2  0.007  0.019  0.077  0.019  0.003  0.005  0.016  0.003  0.004  0.152
  3  0.000  0.004  0.225  0.007  0.000  0.000  0.000  0.000  0.000  0.236
  4  0.000  0.004  0.225  0.007  0.000  0.000  0.000  0.000  0.000  0.236
tot  0.015  0.046  0.603  0.052  0.006  0.009  0.031  0.005  0.008  0.776
 
band   9 # energy    8.31757948 # occ.  0.00000000
 
ion      s     py     pz     px    dxy    dyz    dz2    dxz    dx2    tot
  1  0.002  0.052  0.000  0.054  0.006  0.032  0.005  0.032  0.013  0.196
  2  0.002  0.052  0.000  0.054  0.006  0.032  0.005  0.032  0.013  0.196
  3  0.000  0.009  0.031  0.010  0.000  0.000  0.000  0.000  0.000  0.049
  4  0.000  0.009  0.031  0.010  0.000  0.000  0.000  0.000  0.000  0.049
tot  0.004  0.121  0.062  0.128  0.012  0.064  0.010  0.063  0.027  0.491
 
band  10 # energy    8.83688761 # occ.  0.00000000
 
ion      s     py     pz     px    dxy    dyz    dz2    dxz    dx2    tot
  1  0.109  0.011  0.012  0.010  0.000  0.001  0.001  0.001  0.000  0.145
  2  0.109  0.011  0.012  0.010  0.000  0.001  0.001  0.001  0.000  0.145
  3  0.055  0.103  0.005  0.049  0.000  0.000  0.000  0.000  0.000  0.212
  4  0.055  0.103  0.005  0.049  0.000  0.000  0.000  0.000  0.000  0.212
tot  0.329  0.229  0.034  0.118  0.000  0.001  0.002  0.002  0.000  0.715
 
band  11 # energy   10.06092566 # occ.  0.00000000
 
ion      s     py     pz     px    dxy    dyz    dz2    dxz    dx2    tot
  1  0.163  0.003  0.003  0.007  0.005  0.002  0.007  0.001  0.002  0.193
  2  0.163  0.003  0.003  0.007  0.005  0.002  0.007  0.001  0.002  0.193
  3  0.000  0.089  0.020  0.074  0.000  0.000  0.000  0.000  0.000  0.183
  4  0.000  0.089  0.020  0.074  0.000  0.000  0.000  0.000  0.000  0.183
tot  0.327  0.184  0.046  0.162  0.010  0.004  0.015  0.001  0.003  0.753
 
band  12 # energy   10.17139391 # occ.  0.00000000
 
ion      s     py     pz     px    dxy    dyz    dz2    dxz    dx2    tot