<?xml version="1.0" encoding="ISO-8859-1"?>
<modeling>
 <generator>
  <i name="program" type="string">vasp </i>
  <i name="version" type="string">5.3.3.4  </i>
  <i name="subversion" type="string">18Dez12 (build Jun 09 2015 23:14:47) complex                        parallel </i>
  <i name="platform" type="string">half-orig-parallel </i>
  <i name="date" type="string">2019 07 29 </i>
  <i name="time" type="string">19:41:29 </i>
 </generator>
 <incar>
  <i type="string" name="PREC">acc</i>
  <i name="EDIFF">     -0.00010000</i>
  <i name="EDIFFG">     -0.00000100</i>
  <i name="SYMPREC">      0.00010000</i>
  <i type="string" name="LREAL"> Auto</i>
  <i name="SIGMA">      0.02500000</i>
  <i type="logical" name="LORBIT"> F  </i>
  <i type="string" name="GGA"> PE</i>
 </incar>
 <kpoints>
  <generation param="Gamma">
   <v type="int" name="divisions">       4        4        4 </v>
   <v name="usershift">      0.00000000       0.00000000       0.00000000 </v>
   <v name="genvec1">      0.25000000       0.00000000       0.00000000 </v>
   <v name="genvec2">      0.00000000       0.25000000       0.00000000 </v>
   <v name="genvec3">      0.00000000       0.00000000       0.25000000 </v>
   <v name="shift">      0.00000000       0.00000000       0.00000000 </v>
  </generation>
  <varray name="kpointlist" >
   <v>       0.00000000       0.00000000       0.00000000 </v>
   <v>       0.25000000      -0.00000000       0.00000000 </v>
   <v>       0.50000000      -0.00000000       0.00000000 </v>
   <v>       0.25000000       0.25000000       0.00000000 </v>
   <v>       0.00000000       0.00000000       0.25000000 </v>
   <v>       0.25000000      -0.00000000       0.25000000 </v>
   <v>       0.50000000      -0.00000000       0.25000000 </v>
   <v>       0.25000000       0.25000000       0.25000000 </v>
   <v>       0.00000000       0.00000000       0.50000000 </v>
   <v>       0.25000000      -0.00000000       0.50000000 </v>
   <v>       0.50000000      -0.00000000       0.50000000 </v>
   <v>       0.25000000       0.25000000       0.50000000 </v>
  </varray>
  <varray name="weights" >
   <v>       0.01562500 </v>
   <v>       0.09375000 </v>
   <v>       0.04687500 </v>
   <v>       0.09375000 </v>
   <v>       0.03125000 </v>
   <v>       0.18750000 </v>
   <v>       0.09375000 </v>
   <v>       0.18750000 </v>
   <v>       0.01562500 </v>
   <v>       0.09375000 </v>
   <v>       0.04687500 </v>
   <v>       0.09375000 </v>
  </varray>
 </kpoints>
 <parameters>
  <separator name="general" >
   <i type="string" name="SYSTEM">unknown system</i>
   <i type="logical" name="LCOMPAT"> F  </i>
  </separator>
  <separator name="electronic" >
   <i type="string" name="PREC">acc</i>
   <i name="ENMAX">    400.00000000</i>
   <i name="ENAUG">    627.11200000</i>
   <i name="EDIFF">      0.00010000</i>
   <i type="int" name="IALGO">    38</i>
   <i type="int" name="IWAVPR">    10</i>
   <i type="int" name="NBANDS">    16</i>
   <i name="NELECT">     16.00000000</i>
   <i type="int" name="TURBO">     0</i>
   <i type="int" name="IRESTART">     0</i>
   <i type="int" name="NREBOOT">     0</i>
   <i type="int" name="NMIN">     0</i>
   <i name="EREF">      0.00000000</i>
   <separator name="electronic smearing" >
    <i type="int" name="ISMEAR">     1</i>
    <i name="SIGMA">      0.02500000</i>
    <i name="KSPACING">      0.50000000</i>
    <i type="logical" name="KGAMMA"> T  </i>
   </separator>
   <separator name="electronic projectors" >
    <i type="logical" name="LREAL"> T  </i>
    <v name="ROPT">     -0.00025000     -0.00025000</v>
    <i type="int" name="LMAXPAW">  -100</i>
    <i type="int" name="LMAXMIX">     2</i>
    <i type="logical" name="NLSPLINE"> F  </i>
   </separator>
   <separator name="electronic startup" >
    <i type="int" name="ISTART">     1</i>
    <i type="int" name="ICHARG">     0</i>
    <i type="int" name="INIWAV">     1</i>
   </separator>
   <separator name="electronic spin" >
    <i type="int" name="ISPIN">     1</i>
    <i type="logical" name="LNONCOLLINEAR"> F  </i>
    <v name="MAGMOM">      1.00000000      1.00000000      1.00000000      1.00000000</v>
    <i name="NUPDOWN">     -1.00000000</i>
    <i type="logical" name="LSORBIT"> F  </i>
    <v name="SAXIS">      0.00000000      0.00000000      1.00000000</v>
    <i type="logical" name="LSPIRAL"> F  </i>
    <v name="QSPIRAL">      0.00000000      0.00000000      0.00000000</v>
    <i type="logical" name="LZEROZ"> F  </i>
   </separator>
   <separator name="electronic exchange-correlation" >
    <i type="logical" name="LASPH"> F  </i>
    <i type="logical" name="LMETAGGA"> F  </i>
   </separator>
   <separator name="electronic convergence" >
    <i type="int" name="NELM">    60</i>
    <i type="int" name="NELMDL">     0</i>
    <i type="int" name="NELMIN">     2</i>
    <i name="ENINI">    400.00000000</i>
    <separator name="electronic convergence detail" >
     <i type="logical" name="LDIAG"> T  </i>
     <i type="logical" name="LSUBROT"> T  </i>
     <i name="WEIMIN">      0.00000000</i>
     <i name="EBREAK">      0.00000000</i>
     <i name="DEPER">      0.30000000</i>
     <i type="int" name="NRMM">     4</i>
     <i name="TIME">      0.40000000</i>
    </separator>
   </separator>
   <separator name="electronic mixer" >
    <i name="AMIX">      0.40000000</i>
    <i name="BMIX">      1.00000000</i>
    <i name="AMIN">      0.10000000</i>
    <i name="AMIX_MAG">      1.60000000</i>
    <i name="BMIX_MAG">      1.00000000</i>
    <separator name="electronic mixer details" >
     <i type="int" name="IMIX">     4</i>
     <i type="int" name="MAXMIX">   -45</i>
     <i name="WC">    100.00000000</i>
     <i type="int" name="INIMIX">     1</i>
     <i type="int" name="MIXPRE">     1</i>
     <i type="int" name="MREMOVE">     5</i>
    </separator>
   </separator>
   <separator name="electronic dipolcorrection" >
    <i type="logical" name="LDIPOL"> F  </i>
    <i type="logical" name="LMONO"> F  </i>
    <i type="int" name="IDIPOL">     0</i>
    <i name="EPSILON">      1.00000000</i>
    <v name="DIPOL">   -100.00000000   -100.00000000   -100.00000000</v>
    <i name="EFIELD">      0.00000000</i>
   </separator>
  </separator>
  <separator name="grids" >
   <i type="int" name="NGX">    24</i>
   <i type="int" name="NGY">    24</i>
   <i type="int" name="NGZ">    36</i>
   <i type="int" name="NGXF">    48</i>
   <i type="int" name="NGYF">    48</i>
   <i type="int" name="NGZF">    72</i>
   <i type="logical" name="ADDGRID"> F  </i>
  </separator>
  <separator name="ionic" >
   <i type="int" name="NSW">     0</i>
   <i type="int" name="IBRION">    -1</i>
   <i type="int" name="ISIF">     2</i>
   <i name="PSTRESS">      0.00000000</i>
   <i name="EDIFFG">     -0.00000100</i>
   <i type="int" name="NFREE">     0</i>
   <i name="POTIM">      0.50000000</i>
   <i name="SMASS">     -3.00000000</i>
   <i name="SCALEE">      1.00000000</i>
  </separator>
  <separator name="ionic md" >
   <i name="TEBEG">      0.00010000</i>
   <i name="TEEND">      0.00010000</i>
   <i type="int" name="NBLOCK">     1</i>
   <i type="int" name="KBLOCK">     1</i>
   <i type="int" name="NPACO">   256</i>
   <i name="APACO">     16.00000000</i>
  </separator>
  <separator name="symmetry" >
   <i type="int" name="ISYM">     2</i>
   <i name="SYMPREC">      0.00010000</i>
  </separator>
  <separator name="dos" >
   <i type="logical" name="LORBIT"> F  </i>
   <v name="RWIGS">     -1.00000000     -1.00000000</v>
   <i type="int" name="NEDOS">   301</i>
   <i name="EMIN">     10.00000000</i>
   <i name="EMAX">    -10.00000000</i>
   <i name="EFERMI">      0.00000000</i>
  </separator>
  <separator name="writing" >
   <i type="int" name="NWRITE">     2</i>
   <i type="logical" name="LWAVE"> T  </i>
   <i type="logical" name="LCHARG"> T  </i>
   <i type="logical" name="LPARD"> F  </i>
   <i type="logical" name="LVTOT"> F  </i>
   <i type="logical" name="LVHAR"> F  </i>
   <i type="logical" name="LELF"> F  </i>
   <i type="logical" name="LOPTICS"> F  </i>
   <v name="STM">      0.00000000      0.00000000      0.00000000      0.00000000      0.00000000      0.00000000      0.00000000</v>
  </separator>
  <separator name="performance" >
   <i type="int" name="NPAR">    16</i>
   <i type="int" name="NSIM">     4</i>
   <i type="int" name="NBLK">    -1</i>
   <i type="logical" name="LPLANE"> T  </i>
   <i type="logical" name="LSCALAPACK"> T  </i>
   <i type="logical" name="LSCAAWARE"> F  </i>
   <i type="logical" name="LSCALU"> F  </i>
   <i type="logical" name="LASYNC"> F  </i>
   <i type="logical" name="LORBITALREAL"> F  </i>
  </separator>
  <separator name="miscellaneous" >
   <i type="int" name="IDIOT">     3</i>
   <i type="logical" name="LMUSIC"> F  </i>
   <v name="POMASS">     69.72300000     14.00100000</v>
   <v name="DARWINR">      0.00000000      0.00000000</v>
   <v name="DARWINV">      1.00000000      1.00000000</v>
   <i type="logical" name="LCORR"> T  </i>
  </separator>
  <i type="logical" name="GGA_COMPAT"> T  </i>
  <i type="logical" name="LBERRY"> F  </i>
  <i type="int" name="ICORELEVEL">     0</i>
  <i type="logical" name="LDAU"> F  </i>
  <i type="int" name="I_CONSTRAINED_M">     0</i>
  <separator name="electronic exchange-correlation" >
   <i type="string" name="GGA">PE</i>
   <i type="int" name="VOSKOWN">     0</i>
   <i type="logical" name="LHFCALC"> F  </i>
   <i type="string" name="PRECFOCK"></i>
   <i type="logical" name="LSYMGRAD"> F  </i>
   <i type="logical" name="LHFONE"> F  </i>
   <i type="logical" name="LRHFCALC"> F  </i>
   <i type="logical" name="LTHOMAS"> F  </i>
   <i type="logical" name="LMODELHF"> F  </i>
   <i name="ENCUT4O">     -1.00000000</i>
   <i type="int" name="EXXOEP">     0</i>
   <i type="int" name="FOURORBIT">     0</i>
   <i name="AEXX">      0.00000000</i>
   <i name="HFALPHA">      0.00000000</i>
   <i name="MCALPHA">      0.00000000</i>
   <i name="ALDAX">      1.00000000</i>
   <i name="AGGAX">      1.00000000</i>
   <i name="ALDAC">      1.00000000</i>
   <i name="AGGAC">      1.00000000</i>
   <i type="int" name="NKREDX">     1</i>
   <i type="int" name="NKREDY">     1</i>
   <i type="int" name="NKREDZ">     1</i>
   <i type="logical" name="SHIFTRED"> F  </i>
   <i type="logical" name="ODDONLY"> F  </i>
   <i type="logical" name="EVENONLY"> F  </i>
   <i type="int" name="LMAXFOCK">     0</i>
   <i type="int" name="NMAXFOCKAE">     0</i>
   <i type="logical" name="LFOCKAEDFT"> F  </i>
   <i name="HFSCREEN">      0.00000000</i>
   <i name="HFSCREENC">      0.00000000</i>
   <i type="int" name="NBANDSGWLOW">     0</i>
  </separator>
  <separator name="vdW DFT" >
   <i type="logical" name="LUSE_VDW"> F  </i>
   <i name="Zab_VDW">     -0.84910000</i>
   <i name="PARAM1">      0.12340000</i>
   <i name="PARAM2">      1.00000000</i>
   <i name="PARAM3">      0.00000000</i>
  </separator>
  <separator name="model GW" >
   <i type="int" name="MODEL_GW">     0</i>
   <i name="MODEL_EPS0">      7.24843936</i>
   <i name="MODEL_ALPHA">      1.00000000</i>
  </separator>
  <separator name="linear response parameters" >
   <i type="logical" name="LEPSILON"> F  </i>
   <i type="logical" name="LRPA"> F  </i>
   <i type="logical" name="LNABLA"> F  </i>
   <i type="logical" name="LVEL"> F  </i>
   <i type="int" name="KINTER">     0</i>
   <i name="CSHIFT">      0.10000000</i>
   <i name="OMEGAMAX">     -1.00000000</i>
   <i name="DEG_THRESHOLD">      0.00200000</i>
  </separator>
  <separator name="orbital magnetization" >
   <i type="logical" name="NUCIND"> F  </i>
   <v name="MAGPOS">      0.00000000      0.00000000      0.00000000</v>
   <i type="logical" name="LNICSALL"> T  </i>
   <i type="logical" name="ORBITALMAG"> F  </i>
   <i type="logical" name="LMAGBLOCH"> F  </i>
   <i type="logical" name="LCHIMAG"> F  </i>
   <i type="logical" name="LGAUGE"> T  </i>
   <i type="int" name="MAGATOM">     0</i>
   <v name="MAGDIPOL">      0.00000000      0.00000000      0.00000000</v>
   <v name="AVECCONST">      0.00000000      0.00000000      0.00000000</v>
  </separator>
  <separator name="response functions" >
   <i type="logical" name="LADDER"> F  </i>
   <i type="logical" name="LFXC"> F  </i>
   <i type="logical" name="LHARTREE"> T  </i>
   <i type="int" name="IBSE">     0</i>
   <i type="logical" name="LTCTE"> F  </i>
   <i type="logical" name="LTETE"> F  </i>
   <i type="logical" name="LTRIPLET"> F  </i>
   <i type="logical" name="LFXCEPS"> F  </i>
   <i type="logical" name="L2ORDER"> F  </i>
   <i type="logical" name="LUSEW"> F  </i>
   <i name="ENCUTGW">     -2.00000000</i>
   <i name="ENCUTGWSOFT">     -2.00000000</i>
   <i name="ENCUTLF">     -1.00000000</i>
   <i type="int" name="LMAXMP2">    -1</i>
   <i name="SCISSOR">      0.00000000</i>
   <i type="int" name="NOMEGA">     0</i>
   <i type="int" name="NOMEGAR">     0</i>
   <i type="int" name="NBANDSGW">    -1</i>
   <i type="int" name="NBANDSO">    -1</i>
   <i type="int" name="NBANDSV">    -1</i>
   <i type="int" name="NELM">     1</i>
   <i type="int" name="DIM">     3</i>
   <i type="int" name="ANTIRES">     0</i>
   <i name="OMEGAMAX">    -30.00000000</i>
   <i name="OMEGATL">   -200.00000000</i>
   <i type="int" name="OMEGAGRID">     0</i>
   <i name="CSHIFT">     -0.10000000</i>
   <i type="logical" name="SELFENERGY"> F  </i>
   <i type="logical" name="LSPECTRAL"> F  </i>
   <i type="logical" name="ODDONLYGW"> F  </i>
   <i type="logical" name="EVENONLYGW"> F  </i>
   <i type="int" name="NKREDLFX">     1</i>
   <i type="int" name="NKREDLFY">     1</i>
   <i type="int" name="NKREDLFZ">     1</i>
   <i type="int" name="MAXMEM">  1800</i>
   <i type="int" name="TELESCOPE">     0</i>
  </separator>
 </parameters>
 <atominfo>
  <atoms>       4 </atoms>
  <types>       2 </types>
  <array name="atoms" >
   <dimension dim="1">ion</dimension>
   <field type="string">element</field>
   <field type="int">atomtype</field>
   <set>
    <rc><c>Ga</c><c>   1</c></rc>
    <rc><c>Ga</c><c>   1</c></rc>
    <rc><c>N </c><c>   2</c></rc>
    <rc><c>N </c><c>   2</c></rc>
   </set>
  </array>
  <array name="atomtypes" >
   <dimension dim="1">type</dimension>
   <field type="int">atomspertype</field>
   <field type="string">element</field>
   <field>mass</field>
   <field>valence</field>
   <field type="string">pseudopotential</field>
   <set>
    <rc><c>   2</c><c>Ga</c><c>     69.72300000</c><c>      3.00000000</c><c>  PAW_PBE Ga 08Apr2002                  </c></rc>
    <rc><c>   2</c><c>N </c><c>     14.00100000</c><c>      5.00000000</c><c>  PAW_PBE N 08Apr2002                   </c></rc>
   </set>
  </array>
 </atominfo>
 <structure name="initialpos" >
  <crystal>
   <varray name="basis" >
    <v>       3.24750543       0.00000000       0.00000000 </v>
    <v>      -1.62375272       2.81242236       0.00000000 </v>
    <v>       0.00000000       0.00000000       5.29081801 </v>
   </varray>
   <i name="volume">     48.32292909 </i>
   <varray name="rec_basis" >
    <v>       0.30792866       0.17778269       0.00000000 </v>
    <v>       0.00000000       0.35556537       0.00000000 </v>
    <v>       0.00000000       0.00000000       0.18900669 </v>
   </varray>
  </crystal>
  <varray name="positions" >
   <v>       0.33333300       0.66666700       0.99912000 </v>
   <v>       0.66666700       0.33333300       0.49912000 </v>
   <v>       0.33333300       0.66666700       0.37588000 </v>
   <v>       0.66666700       0.33333300       0.87588000 </v>
  </varray>
 </structure>
 <calculation>
  <scstep>
   <time name="dav">    0.13    0.13</time>
   <time name="total">    0.15    0.15</time>
   <energy>
    <i name="alphaZ">     53.64533683 </i>
    <i name="ewald">   -563.85685719 </i>
    <i name="hartreedc">   -165.66165393 </i>
    <i name="XCdc">      4.09325105 </i>
    <i name="pawpsdc">   1461.50167192 </i>
    <i name="pawaedc">  -1417.83129052 </i>
    <i name="eentropy">      0.00004900 </i>
    <i name="bandstr">    -43.05605574 </i>
    <i name="atom">    646.68742485 </i>
    <i name="e_fr_energy">    -24.47812372 </i>
    <i name="e_wo_entrp">    -24.47817273 </i>
    <i name="e_0_energy">    -24.47814006 </i>
   </energy>
  </scstep>
  <scstep>
   <time name="dav">    0.13    0.13</time>
   <time name="total">    0.15    0.16</time>
   <energy>
    <i name="e_fr_energy">    -24.28460625 </i>
    <i name="e_wo_entrp">    -24.28465814 </i>
    <i name="e_0_energy">    -24.28462354 </i>
   </energy>
  </scstep>
  <scstep>
   <time name="dav">    0.13    0.13</time>
   <time name="total">    0.15    0.15</time>
   <energy>
    <i name="e_fr_energy">    -24.28309229 </i>
    <i name="e_wo_entrp">    -24.28314398 </i>
    <i name="e_0_energy">    -24.28310952 </i>
   </energy>
  </scstep>
  <scstep>
   <time name="dav">    0.14    0.14</time>
   <time name="total">    0.16    0.16</time>
   <energy>
    <i name="e_fr_energy">    -24.28197236 </i>
    <i name="e_wo_entrp">    -24.28202411 </i>
    <i name="e_0_energy">    -24.28198961 </i>
   </energy>
  </scstep>
  <scstep>
   <time name="dav">    0.17    0.17</time>
   <time name="total">    0.17    0.18</time>
   <energy>
    <i name="alphaZ">     53.64533683 </i>
    <i name="ewald">   -563.85685719 </i>
    <i name="hartreedc">   -158.88332417 </i>
    <i name="XCdc">      3.66460283 </i>
    <i name="pawpsdc">   1620.82217221 </i>
    <i name="pawaedc">  -1577.12481968 </i>
    <i name="eentropy">      0.00005179 </i>
    <i name="bandstr">    -49.23647328 </i>
    <i name="atom">    646.68742485 </i>
    <i name="e_fr_energy">    -24.28188581 </i>
    <i name="e_wo_entrp">    -24.28193759 </i>
    <i name="e_0_energy">    -24.28190307 </i>
   </energy>
  </scstep>
  <structure>
   <crystal>
    <varray name="basis" >
     <v>       3.24750543       0.00000000       0.00000000 </v>
     <v>      -1.62375272       2.81242236       0.00000000 </v>
     <v>       0.00000000       0.00000000       5.29081801 </v>
    </varray>
    <i name="volume">     48.32292909 </i>
    <varray name="rec_basis" >
     <v>       0.30792866       0.17778269       0.00000000 </v>
     <v>       0.00000000       0.35556537       0.00000000 </v>
     <v>       0.00000000       0.00000000       0.18900669 </v>
    </varray>
   </crystal>
   <varray name="positions" >
    <v>       0.33333300       0.66666700       0.99912000 </v>
    <v>       0.66666700       0.33333300       0.49912000 </v>
    <v>       0.33333300       0.66666700       0.37588000 </v>
    <v>       0.66666700       0.33333300       0.87588000 </v>
   </varray>
  </structure>
  <varray name="forces" >
   <v>       0.00000000       0.00000000       0.00201757 </v>
   <v>      -0.00000000       0.00000000       0.00201757 </v>
   <v>       0.00000000      -0.00000000      -0.00201757 </v>
   <v>      -0.00000000       0.00000000      -0.00201757 </v>
  </varray>
  <varray name="stress" >
   <v>     -28.92017334       0.00000000       0.00000000 </v>
   <v>       0.00000000     -28.92017654      -0.00000000 </v>
   <v>       0.00000000      -0.00000000     -38.57981267 </v>
  </varray>
  <energy>
   <i name="e_fr_energy">    -24.28188581 </i>
   <i name="e_wo_entrp">    -24.28190307 </i>
   <i name="e_0_energy">      0.00005179 </i>
  </energy>
  <time name="totalsc">    1.36    1.41</time>
  <eigenvalues>
   <array>
    <dimension dim="1">band</dimension>
    <dimension dim="2">kpoint</dimension>
    <dimension dim="3">spin</dimension>
    <field>eigene</field>
    <field>occ</field>
    <set>
     <set comment="spin 1">
      <set comment="kpoint 1">
       <r>  -12.9193    1.0000 </r>
       <r>  -10.7767    1.0000 </r>
       <r>   -4.1015    1.0000 </r>
       <r>    1.5966    1.0000 </r>
       <r>    1.5966    1.0000 </r>
       <r>    2.5178    1.0055 </r>
       <r>    2.5498    0.9974 </r>
       <r>    2.5499    0.9972 </r>
       <r>    4.1394    0.0000 </r>
       <r>    6.5098    0.0000 </r>
       <r>   11.4801    0.0000 </r>
       <r>   12.1964    0.0000 </r>
       <r>   12.1964    0.0000 </r>
       <r>   12.9686    0.0000 </r>
       <r>   13.9085    0.0000 </r>
       <r>   13.9085    0.0000 </r>
      </set>
      <set comment="kpoint 2">
       <r>  -12.1615    1.0000 </r>
       <r>  -10.3385    1.0000 </r>
       <r>   -3.3617    1.0000 </r>
       <r>   -1.2529    1.0000 </r>
       <r>   -0.3333    1.0000 </r>
       <r>    0.7204    1.0000 </r>
       <r>    1.8966    1.0000 </r>
       <r>    2.0937    1.0000 </r>
       <r>    6.5640    0.0000 </r>
       <r>    8.2231    0.0000 </r>
       <r>    9.7660    0.0000 </r>
       <r>   10.8680    0.0000 </r>
       <r>   12.3778    0.0000 </r>
       <r>   12.9808    0.0000 </r>
       <r>   13.6892    0.0000 </r>
       <r>   14.8429    0.0000 </r>
      </set>
      <set comment="kpoint 3">
       <r>  -10.8740    1.0000 </r>
       <r>  -10.1197    1.0000 </r>
       <r>   -3.6298    1.0000 </r>
       <r>   -2.5407    1.0000 </r>
       <r>   -1.3795    1.0000 </r>
       <r>    0.0346    1.0000 </r>
       <r>    0.4986    1.0000 </r>
       <r>    1.6327    1.0000 </r>
       <r>    7.5025    0.0000 </r>
       <r>    7.8153    0.0000 </r>
       <r>    8.5203    0.0000 </r>
       <r>   10.7711    0.0000 </r>
       <r>   12.6025    0.0000 </r>
       <r>   12.7134    0.0000 </r>
       <r>   14.6968    0.0000 </r>
       <r>   15.3701    0.0000 </r>
      </set>
      <set comment="kpoint 4">
       <r>  -10.9765    1.0000 </r>
       <r>  -10.0258    1.0000 </r>
       <r>   -2.9100    1.0000 </r>
       <r>   -2.3951    1.0000 </r>
       <r>   -1.2399    1.0000 </r>
       <r>   -1.1702    1.0000 </r>
       <r>    0.5847    1.0000 </r>
       <r>    0.7700    1.0000 </r>
       <r>    8.3176    0.0000 </r>
       <r>    8.8369    0.0000 </r>
       <r>   10.0609    0.0000 </r>
       <r>   10.1714    0.0000 </r>
       <r>   11.8816    0.0000 </r>
       <r>   12.6193    0.0000 </r>
       <r>   13.1784    0.0000 </r>
       <r>   15.8381    0.0000 </r>
      </set>
      <set comment="kpoint 5">
       <r>  -12.6936    1.0000 </r>
       <r>  -11.2299    1.0000 </r>
       <r>   -3.2343    1.0000 </r>
       <r>    0.9698    1.0000 </r>
       <r>    1.7312    1.0000 </r>
       <r>    1.7313    1.0000 </r>
       <r>    2.4044    1.0000 </r>
       <r>    2.4044    1.0000 </r>
       <r>    5.3880    0.0000 </r>
       <r>    6.6145    0.0000 </r>
       <r>   11.1011    0.0000 </r>
       <r>   11.8204    0.0000 </r>
       <r>   12.2866    0.0000 </r>
       <r>   12.2867    0.0000 </r>
       <r>   13.4432    0.0000 </r>
       <r>   13.4432    0.0000 </r>
      </set>
      <set comment="kpoint 6">
       <r>  -11.9587    1.0000 </r>
       <r>  -10.6989    1.0000 </r>
       <r>   -2.9059    1.0000 </r>
       <r>   -1.1098    1.0000 </r>
       <r>   -0.5377    1.0000 </r>
       <r>    0.8979    1.0000 </r>
       <r>    1.6992    1.0000 </r>
       <r>    1.8644    1.0000 </r>
       <r>    6.7048    0.0000 </r>
       <r>    8.3020    0.0000 </r>
       <r>    9.6395    0.0000 </r>
       <r>   10.5231    0.0000 </r>
       <r>   12.1457    0.0000 </r>
       <r>   13.1040    0.0000 </r>
       <r>   13.2148    0.0000 </r>
       <r>   14.5161    0.0000 </r>
      </set>
      <set comment="kpoint 7">
       <r>  -10.7636    1.0000 </r>
       <r>  -10.2258    1.0000 </r>
       <r>   -3.8516    1.0000 </r>
       <r>   -3.0860    1.0000 </r>
       <r>   -0.5445    1.0000 </r>
       <r>    0.2364    1.0000 </r>
       <r>    0.9912    1.0000 </r>
       <r>    1.3569    1.0000 </r>
       <r>    6.7026    0.0000 </r>
       <r>    7.5237    0.0000 </r>
       <r>    9.8372    0.0000 </r>
       <r>   10.0762    0.0000 </r>
       <r>   12.5147    0.0000 </r>
       <r>   13.0830    0.0000 </r>
       <r>   13.2203    0.0000 </r>
       <r>   15.5713    0.0000 </r>
      </set>
      <set comment="kpoint 8">
       <r>  -10.8476    1.0000 </r>
       <r>  -10.1739    1.0000 </r>
       <r>   -3.2126    1.0000 </r>
       <r>   -2.6871    1.0000 </r>
       <r>   -1.1497    1.0000 </r>
       <r>   -0.3205    1.0000 </r>
       <r>    0.2007    1.0000 </r>
       <r>    1.2144    1.0000 </r>
       <r>    8.3286    0.0000 </r>
       <r>    8.5224    0.0000 </r>
       <r>   10.2100    0.0000 </r>
       <r>   10.2368    0.0000 </r>
       <r>   11.3565    0.0000 </r>
       <r>   11.7263    0.0000 </r>
       <r>   13.9301    0.0000 </r>
       <r>   15.6632    0.0000 </r>
      </set>
      <set comment="kpoint 9">
       <r>  -12.0616    1.0000 </r>
       <r>  -12.0616    1.0000 </r>
       <r>   -1.2621    1.0000 </r>
       <r>   -1.2621    1.0000 </r>
       <r>    2.0614    1.0000 </r>
       <r>    2.0614    1.0000 </r>
       <r>    2.0614    1.0000 </r>
       <r>    2.0614    1.0000 </r>
       <r>    6.5036    0.0000 </r>
       <r>    6.5036    0.0000 </r>
       <r>   10.7870    0.0000 </r>
       <r>   10.7870    0.0000 </r>
       <r>   12.7022    0.0000 </r>
       <r>   12.7022    0.0000 </r>
       <r>   12.7022    0.0000 </r>
       <r>   12.7022    0.0000 </r>
      </set>
      <set comment="kpoint 10">
       <r>  -11.4010    1.0000 </r>
       <r>  -11.4010    1.0000 </r>
       <r>   -1.9808    1.0000 </r>
       <r>   -1.9808    1.0000 </r>
       <r>    0.6054    1.0000 </r>
       <r>    0.6055    1.0000 </r>
       <r>    1.3555    1.0000 </r>
       <r>    1.3555    1.0000 </r>
       <r>    7.5694    0.0000 </r>
       <r>    7.5694    0.0000 </r>
       <r>    9.9265    0.0000 </r>
       <r>    9.9265    0.0000 </r>
       <r>   12.2992    0.0000 </r>
       <r>   12.2992    0.0000 </r>
       <r>   13.8192    0.0000 </r>
       <r>   13.8192    0.0000 </r>
      </set>
      <set comment="kpoint 11">
       <r>  -10.4933    1.0000 </r>
       <r>  -10.4933    1.0000 </r>
       <r>   -3.7534    1.0000 </r>
       <r>   -3.7534    1.0000 </r>
       <r>    0.7605    1.0000 </r>
       <r>    0.7605    1.0000 </r>
       <r>    0.7824    1.0000 </r>
       <r>    0.7824    1.0000 </r>
       <r>    6.8135    0.0000 </r>
       <r>    6.8135    0.0000 </r>
       <r>   10.0421    0.0000 </r>
       <r>   10.0421    0.0000 </r>
       <r>   12.2472    0.0000 </r>
       <r>   12.2472    0.0000 </r>
       <r>   14.4074    0.0000 </r>
       <r>   14.4074    0.0000 </r>
      </set>
      <set comment="kpoint 12">
       <r>  -10.5208    1.0000 </r>
       <r>  -10.5208    1.0000 </r>
       <r>   -3.1838    1.0000 </r>
       <r>   -3.1837    1.0000 </r>
       <r>   -0.6119    1.0000 </r>
       <r>   -0.6119    1.0000 </r>
       <r>    1.0407    1.0000 </r>
       <r>    1.0407    1.0000 </r>
       <r>    8.1987    0.0000 </r>
       <r>    8.1987    0.0000 </r>
       <r>   10.2712    0.0000 </r>
       <r>   10.2712    0.0000 </r>
       <r>   11.2585    0.0000 </r>
       <r>   11.2585    0.0000 </r>
       <r>   14.6762    0.0000 </r>
       <r>   14.6762    0.0000 </r>
      </set>
     </set>
    </set>
   </array>
  </eigenvalues>
  <separator name="orbital magnetization" >
   <v name="MAGDIPOLOUT">      0.00000000      0.00000000      0.00000000</v>
  </separator>
  <dos>
   <i name="efermi">      2.57058955 </i>
   <total>
    <array>
     <dimension dim="1">gridpoints</dimension>
     <dimension dim="2">spin</dimension>
     <field>energy</field>
     <field>total</field>
     <field>integrated</field>
     <set>
      <set comment="spin 1">
       <r>   -14.3571     0.0000     0.0000 </r>
       <r>   -14.2517     0.0000     0.0000 </r>
       <r>   -14.1463     0.0000     0.0000 </r>
       <r>   -14.0408     0.0000     0.0000 </r>
       <r>   -13.9354     0.0000     0.0000 </r>
       <r>   -13.8299     0.0000     0.0000 </r>
       <r>   -13.7245     0.0000     0.0000 </r>
       <r>   -13.6190     0.0000     0.0000 </r>
       <r>   -13.5136     0.0000     0.0000 </r>
       <r>   -13.4082     0.0000     0.0000 </r>
       <r>   -13.3027     0.0000     0.0000 </r>
       <r>   -13.1973    -0.0000    -0.0000 </r>
       <r>   -13.0918    -0.0000    -0.0000 </r>
       <r>   -12.9864    -0.0001    -0.0000 </r>
       <r>   -12.8809     0.3043     0.0321 </r>
       <r>   -12.7755    -0.0078     0.0312 </r>
       <r>   -12.6700     0.6035     0.0949 </r>
       <r>   -12.5646    -0.0108     0.0938 </r>
       <r>   -12.4592    -0.0000     0.0938 </r>
       <r>   -12.3537    -0.0000     0.0938 </r>
       <r>   -12.2483    -0.0000     0.0937 </r>
       <r>   -12.1428     1.7337     0.2766 </r>
       <r>   -12.0374     0.6499     0.3451 </r>
       <r>   -11.9319     3.6538     0.7304 </r>
       <r>   -11.8265    -0.1101     0.7188 </r>
       <r>   -11.7211     0.0000     0.7188 </r>
       <r>   -11.6156    -0.0000     0.7188 </r>
       <r>   -11.5102    -0.0000     0.7187 </r>
       <r>   -11.4047     1.3409     0.8601 </r>
       <r>   -11.2993     2.2153     1.0937 </r>
       <r>   -11.1938     0.6108     1.1581 </r>
       <r>   -11.0884    -0.0178     1.1562 </r>
       <r>   -10.9829     0.5159     1.2106 </r>
       <r>   -10.8775     1.4760     1.3663 </r>
       <r>   -10.7721     4.8386     1.8765 </r>
       <r>   -10.6666     5.1481     2.4193 </r>
       <r>   -10.5612    -0.2045     2.3978 </r>
       <r>   -10.4557     5.4668     2.9742 </r>
       <r>   -10.3503     0.2077     2.9961 </r>
       <r>   -10.2448     1.5543     3.1600 </r>
       <r>   -10.1394     5.4265     3.7322 </r>
       <r>   -10.0340     1.1871     3.8574 </r>
       <r>    -9.9285     1.3528     4.0000 </r>
       <r>    -9.8231     0.0000     4.0000 </r>
       <r>    -9.7176     0.0000     4.0000 </r>
       <r>    -9.6122     0.0000     4.0000 </r>
       <r>    -9.5067     0.0000     4.0000 </r>
       <r>    -9.4013     0.0000     4.0000 </r>
       <r>    -9.2958     0.0000     4.0000 </r>
       <r>    -9.1904     0.0000     4.0000 </r>
       <r>    -9.0850     0.0000     4.0000 </r>
       <r>    -8.9795     0.0000     4.0000 </r>
       <r>    -8.8741     0.0000     4.0000 </r>
       <r>    -8.7686     0.0000     4.0000 </r>
       <r>    -8.6632     0.0000     4.0000 </r>
       <r>    -8.5577     0.0000     4.0000 </r>
       <r>    -8.4523     0.0000     4.0000 </r>
       <r>    -8.3468     0.0000     4.0000 </r>
       <r>    -8.2414     0.0000     4.0000 </r>
       <r>    -8.1360     0.0000     4.0000 </r>
       <r>    -8.0305     0.0000     4.0000 </r>
       <r>    -7.9251     0.0000     4.0000 </r>
       <r>    -7.8196     0.0000     4.0000 </r>
       <r>    -7.7142     0.0000     4.0000 </r>
       <r>    -7.6087     0.0000     4.0000 </r>
       <r>    -7.5033     0.0000     4.0000 </r>
       <r>    -7.3979     0.0000     4.0000 </r>
       <r>    -7.2924     0.0000     4.0000 </r>
       <r>    -7.1870     0.0000     4.0000 </r>
       <r>    -7.0815     0.0000     4.0000 </r>
       <r>    -6.9761     0.0000     4.0000 </r>
       <r>    -6.8706     0.0000     4.0000 </r>
       <r>    -6.7652     0.0000     4.0000 </r>
       <r>    -6.6597     0.0000     4.0000 </r>
       <r>    -6.5543     0.0000     4.0000 </r>
       <r>    -6.4489     0.0000     4.0000 </r>
       <r>    -6.3434     0.0000     4.0000 </r>
       <r>    -6.2380     0.0000     4.0000 </r>
       <r>    -6.1325     0.0000     4.0000 </r>
       <r>    -6.0271     0.0000     4.0000 </r>
       <r>    -5.9216     0.0000     4.0000 </r>
       <r>    -5.8162     0.0000     4.0000 </r>
       <r>    -5.7108     0.0000     4.0000 </r>
       <r>    -5.6053     0.0000     4.0000 </r>
       <r>    -5.4999     0.0000     4.0000 </r>
       <r>    -5.3944     0.0000     4.0000 </r>
       <r>    -5.2890     0.0000     4.0000 </r>
       <r>    -5.1835     0.0000     4.0000 </r>
       <r>    -5.0781     0.0000     4.0000 </r>
       <r>    -4.9726     0.0000     4.0000 </r>
       <r>    -4.8672     0.0000     4.0000 </r>
       <r>    -4.7618     0.0000     4.0000 </r>
       <r>    -4.6563     0.0000     4.0000 </r>
       <r>    -4.5509     0.0000     4.0000 </r>
       <r>    -4.4454     0.0000     4.0000 </r>
       <r>    -4.3400    -0.0000     4.0000 </r>
       <r>    -4.2345    -0.0000     4.0000 </r>
       <r>    -4.1291    -0.0097     3.9990 </r>
       <r>    -4.0237     0.3061     4.0313 </r>
       <r>    -3.9182    -0.0010     4.0311 </r>
       <r>    -3.8128     1.8205     4.2231 </r>
       <r>    -3.7073     1.7596     4.4087 </r>
       <r>    -3.6019     0.8959     4.5031 </r>
       <r>    -3.4964    -0.0297     4.5000 </r>
       <r>    -3.3910    -0.0622     4.4934 </r>
       <r>    -3.2855     1.8360     4.6870 </r>
       <r>    -3.1801     6.4916     5.3715 </r>
       <r>    -3.0747     2.7172     5.6581 </r>
       <r>    -2.9692     0.2721     5.6867 </r>
       <r>    -2.8638     5.4326     6.2596 </r>
       <r>    -2.7583    -0.0916     6.2499 </r>
       <r>    -2.6529     3.6739     6.6373 </r>
       <r>    -2.5474     0.1331     6.6513 </r>
       <r>    -2.4420     0.6185     6.7166 </r>
       <r>    -2.3365     1.8031     6.9067 </r>
       <r>    -2.2311    -0.0040     6.9062 </r>
       <r>    -2.1257    -0.0000     6.9062 </r>
       <r>    -2.0202    -0.0856     6.8972 </r>
       <r>    -1.9148     3.6441     7.2815 </r>
       <r>    -1.8093    -0.0022     7.2812 </r>
       <r>    -1.7039     0.0000     7.2812 </r>
       <r>    -1.5984    -0.0000     7.2812 </r>
       <r>    -1.4930    -0.0000     7.2812 </r>
       <r>    -1.3876     0.2156     7.3040 </r>
       <r>    -1.2821     0.5832     7.3655 </r>
       <r>    -1.1767     4.6417     7.8549 </r>
       <r>    -1.0712     8.5801     8.7596 </r>
       <r>    -0.9658    -0.0914     8.7500 </r>
       <r>    -0.8603    -0.0000     8.7500 </r>
       <r>    -0.7549    -0.0000     8.7500 </r>
       <r>    -0.6494    -0.0978     8.7397 </r>
       <r>    -0.5440     5.6187     9.3321 </r>
       <r>    -0.4386     3.3701     9.6875 </r>
       <r>    -0.3331     1.3561     9.8305 </r>
       <r>    -0.2277     3.9785    10.2500 </r>
       <r>    -0.1222    -0.0000    10.2500 </r>
       <r>    -0.0168    -0.0059    10.2494 </r>
       <r>     0.0887     0.8991    10.3442 </r>
       <r>     0.1941     0.9800    10.4475 </r>
       <r>     0.2995     4.3524    10.9064 </r>
       <r>     0.4050    -0.0018    10.9062 </r>
       <r>     0.5104     0.7607    10.9865 </r>
       <r>     0.6159     4.8902    11.5021 </r>
       <r>     0.7213     1.4534    11.6554 </r>
       <r>     0.8268     6.2653    12.3160 </r>
       <r>     0.9322     3.6197    12.6977 </r>
       <r>     1.0377     3.7094    13.0888 </r>
       <r>     1.1431     2.1209    13.3124 </r>
       <r>     1.2485     3.6744    13.6999 </r>
       <r>     1.3540     2.1953    13.9313 </r>
       <r>     1.4594     3.0220    14.2500 </r>
       <r>     1.5649    -0.0212    14.2478 </r>
       <r>     1.6703     1.4026    14.3957 </r>
       <r>     1.7758     4.8606    14.9082 </r>
       <r>     1.8812     3.4871    15.2759 </r>
       <r>     1.9866     1.8292    15.4687 </r>
       <r>     2.0921     2.0189    15.6816 </r>
       <r>     2.1975     0.9449    15.7813 </r>
       <r>     2.3030    -0.0000    15.7812 </r>
       <r>     2.4084     0.7518    15.8605 </r>
       <r>     2.5139     0.5254    15.9159 </r>
       <r>     2.6193     0.7976    16.0000 </r>
       <r>     2.7248    -0.0002    16.0000 </r>
       <r>     2.8302     0.0000    16.0000 </r>
       <r>     2.9356     0.0000    16.0000 </r>
       <r>     3.0411     0.0000    16.0000 </r>
       <r>     3.1465     0.0000    16.0000 </r>
       <r>     3.2520     0.0000    16.0000 </r>
       <r>     3.3574     0.0000    16.0000 </r>
       <r>     3.4629     0.0000    16.0000 </r>
       <r>     3.5683     0.0000    16.0000 </r>
       <r>     3.6738     0.0000    16.0000 </r>
       <r>     3.7792     0.0000    16.0000 </r>
       <r>     3.8846    -0.0000    16.0000 </r>
       <r>     3.9901    -0.0000    16.0000 </r>
       <r>     4.0955    -0.0048    15.9995 </r>
       <r>     4.2010     0.3016    16.0313 </r>
       <r>     4.3064    -0.0004    16.0312 </r>
       <r>     4.4119     0.0000    16.0312 </r>
       <r>     4.5173     0.0000    16.0312 </r>
       <r>     4.6227     0.0000    16.0312 </r>
       <r>     4.7282     0.0000    16.0312 </r>
       <r>     4.8336     0.0000    16.0312 </r>
       <r>     4.9391     0.0000    16.0312 </r>
       <r>     5.0445     0.0000    16.0312 </r>
       <r>     5.1500    -0.0000    16.0312 </r>
       <r>     5.2554    -0.0000    16.0312 </r>
       <r>     5.3609    -0.0189    16.0293 </r>
       <r>     5.4663     0.6117    16.0938 </r>
       <r>     5.5717    -0.0000    16.0938 </r>
       <r>     5.6772     0.0000    16.0938 </r>
       <r>     5.7826     0.0000    16.0938 </r>
       <r>     5.8881     0.0000    16.0938 </r>
       <r>     5.9935     0.0000    16.0938 </r>
       <r>     6.0990     0.0000    16.0938 </r>
       <r>     6.2044    -0.0000    16.0938 </r>
       <r>     6.3098    -0.0000    16.0938 </r>
       <r>     6.4153    -0.0000    16.0937 </r>
       <r>     6.5207     0.7828    16.1763 </r>
       <r>     6.6262     2.3915    16.4285 </r>
       <r>     6.7316     5.5932    17.0182 </r>
       <r>     6.8371     1.6372    17.1909 </r>
       <r>     6.9425    -0.0319    17.1875 </r>
       <r>     7.0480     0.0000    17.1875 </r>
       <r>     7.1534     0.0000    17.1875 </r>
       <r>     7.2588    -0.0000    17.1875 </r>
       <r>     7.3643    -0.0000    17.1875 </r>
       <r>     7.4697    -0.0388    17.1834 </r>
       <r>     7.5752     5.1671    17.7282 </r>
       <r>     7.6806     1.0954    17.8438 </r>
       <r>     7.7861    -0.0311    17.8405 </r>
       <r>     7.8915     0.9202    17.9375 </r>
       <r>     7.9969    -0.0001    17.9375 </r>
       <r>     8.1024    -0.0000    17.9375 </r>
       <r>     8.2078     2.9378    18.2473 </r>
       <r>     8.3133     6.2920    18.9107 </r>
       <r>     8.4187     4.9958    19.4375 </r>
       <r>     8.5242     2.5527    19.7067 </r>
       <r>     8.6296     1.8928    19.9063 </r>
       <r>     8.7351    -0.0000    19.9062 </r>
       <r>     8.8405     1.1040    20.0227 </r>
       <r>     8.9459     0.6742    20.0938 </r>
       <r>     9.0514     0.0000    20.0938 </r>
       <r>     9.1568     0.0000    20.0938 </r>
       <r>     9.2623     0.0000    20.0938 </r>
       <r>     9.3677    -0.0000    20.0938 </r>
       <r>     9.4732    -0.0000    20.0938 </r>
       <r>     9.5786    -0.0054    20.0932 </r>
       <r>     9.6840     3.6158    20.4744 </r>
       <r>     9.7895     1.7371    20.6576 </r>
       <r>     9.8949     1.6447    20.8310 </r>
       <r>    10.0004     3.6390    21.2147 </r>
       <r>    10.1058     5.4617    21.7906 </r>
       <r>    10.2113     3.5572    22.1657 </r>
       <r>    10.3167     8.8498    23.0989 </r>
       <r>    10.4222    -0.0485    23.0937 </r>
       <r>    10.5276     2.3060    23.3369 </r>
       <r>    10.6330     1.2504    23.4688 </r>
       <r>    10.7385    -0.0365    23.4649 </r>
       <r>    10.8439     1.4828    23.6213 </r>
       <r>    10.9494     1.8137    23.8125 </r>
       <r>    11.0548    -0.0075    23.8117 </r>
       <r>    11.1603     0.6014    23.8751 </r>
       <r>    11.2657     2.6045    24.1498 </r>
       <r>    11.3712     4.2024    24.5929 </r>
       <r>    11.4766     0.4185    24.6370 </r>
       <r>    11.5820     0.1826    24.6563 </r>
       <r>    11.6875    -0.0896    24.6468 </r>
       <r>    11.7929     3.6286    25.0294 </r>
       <r>    11.8984     2.2976    25.2717 </r>
       <r>    12.0038     0.0908    25.2813 </r>
       <r>    12.1093    -0.1049    25.2702 </r>
       <r>    12.2147     4.1759    25.7105 </r>
       <r>    12.3201     6.6296    26.4096 </r>
       <r>    12.4256     1.7655    26.5957 </r>
       <r>    12.5310     1.6584    26.7706 </r>
       <r>    12.6365     2.7171    27.0571 </r>
       <r>    12.7419     2.1843    27.2874 </r>
       <r>    12.8474    -0.0584    27.2812 </r>
       <r>    12.9528    -0.0398    27.2771 </r>
       <r>    13.0583     2.0245    27.4905 </r>
       <r>    13.1637     5.5537    28.0761 </r>
       <r>    13.2691     7.0158    28.8159 </r>
       <r>    13.3746    -0.0326    28.8125 </r>
       <r>    13.4800     1.2200    28.9411 </r>
       <r>    13.5855    -0.0342    28.9375 </r>
       <r>    13.6909     0.9907    29.0420 </r>
       <r>    13.7964     0.7391    29.1199 </r>
       <r>    13.9018     3.6512    29.5049 </r>
       <r>    14.0072     4.1028    29.9375 </r>
       <r>    14.1127    -0.0002    29.9375 </r>
       <r>    14.2181    -0.0000    29.9375 </r>
       <r>    14.3236    -0.0000    29.9375 </r>
       <r>    14.4290     1.7874    30.1260 </r>
       <r>    14.5345     3.4446    30.4892 </r>
       <r>    14.6399    -0.0056    30.4886 </r>
       <r>    14.7454     4.5634    30.9698 </r>
       <r>    14.8508     1.3314    31.1102 </r>
       <r>    14.9562     0.4372    31.1563 </r>
       <r>    15.0617     0.0000    31.1562 </r>
       <r>    15.1671    -0.0000    31.1562 </r>
       <r>    15.2726    -0.0000    31.1562 </r>
       <r>    15.3780     0.6700    31.2269 </r>
       <r>    15.4835     0.2191    31.2500 </r>
       <r>    15.5889     1.7097    31.4303 </r>
       <r>    15.6943     3.7508    31.8258 </r>
       <r>    15.7998    -0.1723    31.8076 </r>
       <r>    15.9052     1.8255    32.0001 </r>
       <r>    16.0107    -0.0009    32.0000 </r>
       <r>    16.1161     0.0000    32.0000 </r>
       <r>    16.2216     0.0000    32.0000 </r>
       <r>    16.3270     0.0000    32.0000 </r>
       <r>    16.4325     0.0000    32.0000 </r>
       <r>    16.5379     0.0000    32.0000 </r>
       <r>    16.6433     0.0000    32.0000 </r>
       <r>    16.7488     0.0000    32.0000 </r>
       <r>    16.8542     0.0000    32.0000 </r>
       <r>    16.9597     0.0000    32.0000 </r>
       <r>    17.0651     0.0000    32.0000 </r>
       <r>    17.1706     0.0000    32.0000 </r>
       <r>    17.2760     0.0000    32.0000 </r>
      </set>
     </set>
    </array>
   </total>
   <partial>
    <array>
     <dimension dim="1">gridpoints</dimension>
     <dimension dim="2">spin</dimension>
     <dimension dim="3">ion</dimension>
     <field>energy</field>
     <field>  s</field>
     <field> py</field>
     <field> pz</field>
     <field> px</field>
     <field>dxy</field>
     <field>dyz</field>
     <field>dz2</field>
     <field>dxz</field>
     <field>dx2</field>
     <set>
      <set comment="ion 1">
       <set comment="spin 1">
        <r>   -14.3571     0.0000     0.0000     0.0000     0.0000     0.0000     0.0000     0.0000     0.0000     0.0000 </r>
        <r>   -14.2517     0.0000     0.0000     0.0000     0.0000     0.0000     0.0000     0.0000     0.0000     0.0000 </r>
        <r>   -14.1463     0.0000     0.0000     0.0000     0.0000     0.0000     0.0000     0.0000     0.0000     0.0000 </r>
        <r>   -14.0408     0.0000     0.0000     0.0000     0.0000     0.0000     0.0000     0.0000     0.0000     0.0000 </r>
        <r>   -13.9354     0.0000     0.0000     0.0000     0.0000     0.0000     0.0000     0.0000     0.0000     0.0000 </r>
        <r>   -13.8299     0.0000     0.0000     0.0000     0.0000     0.0000     0.0000     0.0000     0.0000     0.0000 </r>
        <r>   -13.7245     0.0000     0.0000     0.0000     0.0000     0.0000     0.0000     0.0000     0.0000     0.0000 </r>
        <r>   -13.6190     0.0000     0.0000     0.0000     0.0000     0.0000     0.0000     0.0000     0.0000     0.0000 </r>
        <r>   -13.5136     0.0000     0.0000     0.0000     0.0000     0.0000     0.0000     0.0000     0.0000     0.0000 </r>
        <r>   -13.4082     0.0000     0.0000     0.0000     0.0000     0.0000     0.0000     0.0000     0.0000     0.0000 </r>
        <r>   -13.3027     0.0000     0.0000     0.0000     0.0000     0.0000     0.0000     0.0000     0.0000     0.0000 </r>
        <r>   -13.1973    -0.0000    -0.0000    -0.0000    -0.0000    -0.0000    -0.0000    -0.0000    -0.0000    -0.0000 </r>
        <r>   -13.0918    -0.0000    -0.0000    -0.0000    -0.0000    -0.0000    -0.0000    -0.0000    -0.0000    -0.0000 </r>
        <r>   -12.9864    -0.0000    -0.0000    -0.0000    -0.0000    -0.0000    -0.0000    -0.0000    -0.0000    -0.0000 </r>
        <r>   -12.8809     0.0513     0.0000     0.0000     0.0000     0.0000     0.0000     0.0000     0.0000     0.0000 </r>
        <r>   -12.7755    -0.0013    -0.0000    -0.0000    -0.0000    -0.0000    -0.0000    -0.0000    -0.0000    -0.0000 </r>
        <r>   -12.6700     0.0955     0.0000     0.0041     0.0000     0.0000     0.0000     0.0006     0.0000     0.0000 </r>
        <r>   -12.5646    -0.0017    -0.0000    -0.0001    -0.0000    -0.0000    -0.0000    -0.0000    -0.0000    -0.0000 </r>
        <r>   -12.4592    -0.0000    -0.0000    -0.0000    -0.0000    -0.0000    -0.0000    -0.0000    -0.0000    -0.0000 </r>
        <r>   -12.3537    -0.0000    -0.0000    -0.0000    -0.0000    -0.0000    -0.0000    -0.0000    -0.0000    -0.0000 </r>
        <r>   -12.2483    -0.0000    -0.0000    -0.0000    -0.0000    -0.0000    -0.0000    -0.0000    -0.0000    -0.0000 </r>
        <r>   -12.1428     0.2303     0.0094     0.0004     0.0283     0.0034     0.0005     0.0003     0.0014     0.0011 </r>
        <r>   -12.0374     0.0835     0.0002     0.0146     0.0007     0.0001     0.0000     0.0026     0.0000     0.0000 </r>
        <r>   -11.9319     0.4481     0.0197     0.0223     0.0591     0.0078     0.0012     0.0032     0.0036     0.0026 </r>
        <r>   -11.8265    -0.0135    -0.0006    -0.0007    -0.0018    -0.0002    -0.0000    -0.0001    -0.0001    -0.0001 </r>
        <r>   -11.7211     0.0000     0.0000     0.0000     0.0000     0.0000     0.0000     0.0000     0.0000     0.0000 </r>
        <r>   -11.6156    -0.0000    -0.0000    -0.0000    -0.0000    -0.0000    -0.0000    -0.0000    -0.0000    -0.0000 </r>
        <r>   -11.5102    -0.0000    -0.0000    -0.0000    -0.0000    -0.0000    -0.0000    -0.0000    -0.0000    -0.0000 </r>
        <r>   -11.4047     0.1233     0.0075     0.0289     0.0226     0.0031     0.0006     0.0051     0.0018     0.0010 </r>
        <r>   -11.2993     0.2038     0.0124     0.0477     0.0373     0.0051     0.0010     0.0084     0.0029     0.0017 </r>
        <r>   -11.1938     0.0516     0.0000     0.0267     0.0000     0.0000     0.0000     0.0069     0.0000     0.0000 </r>
        <r>   -11.0884    -0.0015    -0.0000    -0.0008    -0.0000    -0.0000    -0.0000    -0.0002    -0.0000    -0.0000 </r>
        <r>   -10.9829     0.0357     0.0168     0.0016     0.0087     0.0018     0.0011     0.0009     0.0006     0.0026 </r>
        <r>   -10.8775     0.1017     0.0410     0.0042     0.0313     0.0065     0.0026     0.0027     0.0022     0.0065 </r>
        <r>   -10.7721     0.2865     0.1341     0.0450     0.0964     0.0206     0.0090     0.0128     0.0077     0.0211 </r>
        <r>   -10.6666     0.2617     0.0395     0.1539     0.1185     0.0198     0.0035     0.0402     0.0104     0.0066 </r>
        <r>   -10.5612    -0.0089    -0.0034    -0.0060    -0.0038    -0.0006    -0.0003    -0.0015    -0.0003    -0.0006 </r>
        <r>   -10.4557     0.1793     0.1466     0.0973     0.1401     0.0266     0.0123     0.0190     0.0119     0.0251 </r>
        <r>   -10.3503     0.0051     0.0009     0.0103     0.0028     0.0004     0.0001     0.0034     0.0004     0.0001 </r>
        <r>   -10.2448     0.0395     0.0101     0.0662     0.0302     0.0049     0.0011     0.0212     0.0033     0.0016 </r>
        <r>   -10.1394     0.0492     0.1527     0.1248     0.1548     0.0255     0.0145     0.0347     0.0129     0.0278 </r>
        <r>   -10.0340    -0.0004     0.0254     0.0264     0.0489     0.0070     0.0022     0.0095     0.0039     0.0040 </r>
        <r>    -9.9285     0.0001     0.0484     0.0322     0.0278     0.0054     0.0046     0.0114     0.0026     0.0090 </r>
        <r>    -9.8231     0.0000     0.0000     0.0000     0.0000     0.0000     0.0000     0.0000     0.0000     0.0000 </r>
        <r>    -9.7176     0.0000     0.0000     0.0000     0.0000     0.0000     0.0000     0.0000     0.0000     0.0000 </r>
        <r>    -9.6122     0.0000     0.0000     0.0000     0.0000     0.0000     0.0000     0.0000     0.0000     0.0000 </r>
        <r>    -9.5067     0.0000     0.0000     0.0000     0.0000     0.0000     0.0000     0.0000     0.0000     0.0000 </r>
        <r>    -9.4013     0.0000     0.0000     0.0000     0.0000     0.0000     0.0000     0.0000     0.0000     0.0000 </r>
        <r>    -9.2958     0.0000     0.0000     0.0000     0.0000     0.0000     0.0000     0.0000     0.0000     0.0000 </r>
        <r>    -9.1904     0.0000     0.0000     0.0000     0.0000     0.0000     0.0000     0.0000     0.0000     0.0000 </r>
        <r>    -9.0850     0.0000     0.0000     0.0000     0.0000     0.0000     0.0000     0.0000     0.0000     0.0000 </r>
        <r>    -8.9795     0.0000     0.0000     0.0000     0.0000     0.0000     0.0000     0.0000     0.0000     0.0000 </r>
        <r>    -8.8741     0.0000     0.0000     0.0000     0.0000     0.0000     0.0000     0.0000     0.0000     0.0000 </r>
        <r>    -8.7686     0.0000     0.0000     0.0000     0.0000     0.0000     0.0000     0.0000     0.0000     0.0000 </r>
        <r>    -8.6632     0.0000     0.0000     0.0000     0.0000     0.0000     0.0000     0.0000     0.0000     0.0000 </r>
        <r>    -8.5577     0.0000     0.0000     0.0000     0.0000     0.0000     0.0000     0.0000     0.0000     0.0000 </r>
        <r>    -8.4523     0.0000     0.0000     0.0000     0.0000     0.0000     0.0000     0.0000     0.0000     0.0000 </r>
        <r>    -8.3468     0.0000     0.0000     0.0000     0.0000     0.0000     0.0000     0.0000     0.0000     0.0000 </r>
        <r>    -8.2414     0.0000     0.0000     0.0000     0.0000     0.0000     0.0000     0.0000     0.0000     0.0000 </r>
        <r>    -8.1360     0.0000     0.0000     0.0000     0.0000     0.0000     0.0000     0.0000     0.0000     0.0000 </r>
        <r>    -8.0305     0.0000     0.0000     0.0000     0.0000     0.0000     0.0000     0.0000     0.0000     0.0000 </r>
        <r>    -7.9251     0.0000     0.0000     0.0000     0.0000     0.0000     0.0000     0.0000     0.0000     0.0000 </r>
        <r>    -7.8196     0.0000     0.0000     0.0000     0.0000     0.0000     0.0000     0.0000     0.0000     0.0000 </r>
        <r>    -7.7142     0.0000     0.0000     0.0000     0.0000     0.0000     0.0000     0.0000     0.0000     0.0000 </r>
        <r>    -7.6087     0.0000     0.0000     0.0000     0.0000     0.0000     0.0000     0.0000     0.0000     0.0000 </r>
        <r>    -7.5033     0.0000     0.0000     0.0000     0.0000     0.0000     0.0000     0.0000     0.0000     0.0000 </r>
        <r>    -7.3979     0.0000     0.0000     0.0000     0.0000     0.0000     0.0000     0.0000     0.0000     0.0000 </r>
        <r>    -7.2924     0.0000     0.0000     0.0000     0.0000     0.0000     0.0000     0.0000     0.0000     0.0000 </r>
        <r>    -7.1870     0.0000     0.0000     0.0000     0.0000     0.0000     0.0000     0.0000     0.0000     0.0000 </r>
        <r>    -7.0815     0.0000     0.0000     0.0000     0.0000     0.0000     0.0000     0.0000     0.0000     0.0000 </r>
        <r>    -6.9761     0.0000     0.0000     0.0000     0.0000     0.0000     0.0000     0.0000     0.0000     0.0000 </r>
        <r>    -6.8706     0.0000     0.0000     0.0000     0.0000     0.0000     0.0000     0.0000     0.0000     0.0000 </r>
        <r>    -6.7652     0.0000     0.0000     0.0000     0.0000     0.0000     0.0000     0.0000     0.0000     0.0000 </r>
        <r>    -6.6597     0.0000     0.0000     0.0000     0.0000     0.0000     0.0000     0.0000     0.0000     0.0000 </r>
        <r>    -6.5543     0.0000     0.0000     0.0000     0.0000     0.0000     0.0000     0.0000     0.0000     0.0000 </r>
        <r>    -6.4489     0.0000     0.0000     0.0000     0.0000     0.0000     0.0000     0.0000     0.0000     0.0000 </r>
        <r>    -6.3434     0.0000     0.0000     0.0000     0.0000     0.0000     0.0000     0.0000     0.0000     0.0000 </r>
        <r>    -6.2380     0.0000     0.0000     0.0000     0.0000     0.0000     0.0000     0.0000     0.0000     0.0000 </r>
        <r>    -6.1325     0.0000     0.0000     0.0000     0.0000     0.0000     0.0000     0.0000     0.0000     0.0000 </r>
        <r>    -6.0271     0.0000     0.0000     0.0000     0.0000     0.0000     0.0000     0.0000     0.0000     0.0000 </r>
        <r>    -5.9216     0.0000     0.0000     0.0000     0.0000     0.0000     0.0000     0.0000     0.0000     0.0000 </r>
        <r>    -5.8162     0.0000     0.0000     0.0000     0.0000     0.0000     0.0000     0.0000     0.0000     0.0000 </r>
        <r>    -5.7108     0.0000     0.0000     0.0000     0.0000     0.0000     0.0000     0.0000     0.0000     0.0000 </r>
        <r>    -5.6053     0.0000     0.0000     0.0000     0.0000     0.0000     0.0000     0.0000     0.0000     0.0000 </r>
        <r>    -5.4999     0.0000     0.0000     0.0000     0.0000     0.0000     0.0000     0.0000     0.0000     0.0000 </r>
        <r>    -5.3944     0.0000     0.0000     0.0000     0.0000     0.0000     0.0000     0.0000     0.0000     0.0000 </r>
        <r>    -5.2890     0.0000     0.0000     0.0000     0.0000     0.0000     0.0000     0.0000     0.0000     0.0000 </r>
        <r>    -5.1835     0.0000     0.0000     0.0000     0.0000     0.0000     0.0000     0.0000     0.0000     0.0000 </r>
        <r>    -5.0781     0.0000     0.0000     0.0000     0.0000     0.0000     0.0000     0.0000     0.0000     0.0000 </r>
        <r>    -4.9726     0.0000     0.0000     0.0000     0.0000     0.0000     0.0000     0.0000     0.0000     0.0000 </r>
        <r>    -4.8672     0.0000     0.0000     0.0000     0.0000     0.0000     0.0000     0.0000     0.0000     0.0000 </r>
        <r>    -4.7618     0.0000     0.0000     0.0000     0.0000     0.0000     0.0000     0.0000     0.0000     0.0000 </r>
        <r>    -4.6563     0.0000     0.0000     0.0000     0.0000     0.0000     0.0000     0.0000     0.0000     0.0000 </r>
        <r>    -4.5509     0.0000     0.0000     0.0000     0.0000     0.0000     0.0000     0.0000     0.0000     0.0000 </r>
        <r>    -4.4454     0.0000     0.0000     0.0000     0.0000     0.0000     0.0000     0.0000     0.0000     0.0000 </r>
        <r>    -4.3400    -0.0000    -0.0000    -0.0000    -0.0000    -0.0000    -0.0000    -0.0000    -0.0000    -0.0000 </r>
        <r>    -4.2345    -0.0000    -0.0000    -0.0000    -0.0000    -0.0000    -0.0000    -0.0000    -0.0000    -0.0000 </r>
        <r>    -4.1291    -0.0015    -0.0000    -0.0009    -0.0000    -0.0000    -0.0000    -0.0000    -0.0000    -0.0000 </r>
        <r>    -4.0237     0.0472     0.0000     0.0274     0.0000     0.0000     0.0000     0.0003     0.0000     0.0000 </r>
        <r>    -3.9182    -0.0002    -0.0000    -0.0000    -0.0000    -0.0000    -0.0000    -0.0000    -0.0000    -0.0000 </r>
        <r>    -3.8128     0.3701     0.0168     0.0158     0.0504     0.0051     0.0010     0.0001     0.0029     0.0017 </r>
        <r>    -3.7073     0.3478     0.0199     0.0060     0.0597     0.0024     0.0024     0.0006     0.0073     0.0008 </r>
        <r>    -3.6019     0.1833     0.0057     0.0121     0.0171     0.0038     0.0000     0.0012     0.0001     0.0013 </r>
        <r>    -3.4964    -0.0061    -0.0002    -0.0004    -0.0006    -0.0001    -0.0000    -0.0000    -0.0000    -0.0000 </r>
        <r>    -3.3910    -0.0116    -0.0001    -0.0037    -0.0002    -0.0000    -0.0000    -0.0000    -0.0001    -0.0000 </r>
        <r>    -3.2855     0.3440     0.0017     0.1101     0.0051     0.0006     0.0008     0.0003     0.0024     0.0002 </r>
        <r>    -3.1801     1.3914     0.1088     0.0665     0.0470     0.0109     0.0097     0.0126     0.0111     0.0111 </r>
        <r>    -3.0747     0.5217     0.0355     0.0162     0.0691     0.0025     0.0073     0.0030     0.0125     0.0049 </r>
        <r>    -2.9692     0.0500     0.0030     0.0024     0.0089     0.0001     0.0006     0.0001     0.0018     0.0000 </r>
        <r>    -2.8638     1.0996     0.0086     0.1345     0.0256     0.0168     0.0032     0.0267     0.0089     0.0061 </r>
        <r>    -2.7583    -0.0177    -0.0001    -0.0025    -0.0005    -0.0003    -0.0001    -0.0005    -0.0002    -0.0001 </r>
        <r>    -2.6529     0.5728     0.0004     0.0407     0.1578     0.0046     0.0205     0.0056     0.0064     0.0226 </r>
        <r>    -2.5474     0.0273     0.0022     0.0021     0.0017    -0.0001    -0.0000    -0.0001     0.0016    -0.0007 </r>
        <r>    -2.4420     0.1143     0.0053     0.0084     0.0162    -0.0000     0.0015     0.0003     0.0047    -0.0001 </r>
        <r>    -2.3365     0.1878     0.0392     0.0257     0.0867     0.0046     0.0052     0.0020     0.0066     0.0121 </r>
        <r>    -2.2311    -0.0004    -0.0001    -0.0001    -0.0002    -0.0000    -0.0000    -0.0000    -0.0000    -0.0000 </r>
        <r>    -2.1257    -0.0000    -0.0000    -0.0000    -0.0000    -0.0000    -0.0000    -0.0000    -0.0000    -0.0000 </r>
        <r>    -2.0202    -0.0117    -0.0008    -0.0005    -0.0023    -0.0007    -0.0001    -0.0010    -0.0004    -0.0002 </r>
        <r>    -1.9148     0.4979     0.0322     0.0220     0.0966     0.0296     0.0061     0.0434     0.0184     0.0099 </r>
        <r>    -1.8093    -0.0003    -0.0000    -0.0000    -0.0001    -0.0000    -0.0000    -0.0000    -0.0000    -0.0000 </r>
        <r>    -1.7039     0.0000     0.0000     0.0000     0.0000     0.0000     0.0000     0.0000     0.0000     0.0000 </r>
        <r>    -1.5984    -0.0000    -0.0000    -0.0000    -0.0000    -0.0000    -0.0000    -0.0000    -0.0000    -0.0000 </r>
        <r>    -1.4930    -0.0000    -0.0000    -0.0000    -0.0000    -0.0000    -0.0000    -0.0000    -0.0000    -0.0000 </r>
        <r>    -1.3876     0.0105     0.0027     0.0198     0.0082     0.0005     0.0002     0.0003     0.0005     0.0002 </r>
        <r>    -1.2821     0.0304     0.0061     0.0559     0.0212     0.0007     0.0004     0.0012     0.0015     0.0001 </r>
        <r>    -1.1767     0.1832     0.1245     0.3156     0.1721     0.0299     0.0083     0.0222     0.0037     0.0164 </r>
        <r>    -1.0712     0.7003     0.5084     0.0245     0.4921     0.0575     0.0135     0.0189     0.0330     0.0264 </r>
        <r>    -0.9658    -0.0115    -0.0019    -0.0004    -0.0058    -0.0013    -0.0001    -0.0004    -0.0004    -0.0004 </r>
        <r>    -0.8603    -0.0000    -0.0000    -0.0000    -0.0000    -0.0000    -0.0000    -0.0000    -0.0000    -0.0000 </r>
        <r>    -0.7549    -0.0000    -0.0000    -0.0000    -0.0000    -0.0000    -0.0000    -0.0000    -0.0000    -0.0000 </r>
        <r>    -0.6494    -0.0010    -0.0067    -0.0000    -0.0078    -0.0002    -0.0005    -0.0001    -0.0008    -0.0002 </r>
        <r>    -0.5440     0.0858     0.2662     0.1505     0.3433     0.0185     0.0224     0.0148     0.0356     0.0117 </r>
        <r>    -0.4386     0.0640     0.0271     0.2385     0.0814     0.0192     0.0053     0.0185     0.0160     0.0064 </r>
        <r>    -0.3331     0.0905     0.0116     0.0614     0.0330     0.0163     0.0050     0.0036     0.0108     0.0072 </r>
        <r>    -0.2277     0.1333     0.0423     0.3305     0.1144     0.0187     0.0132     0.0223     0.0106     0.0180 </r>
        <r>    -0.1222    -0.0000    -0.0000    -0.0000    -0.0000    -0.0000    -0.0000    -0.0000    -0.0000    -0.0000 </r>
        <r>    -0.0168    -0.0000    -0.0007    -0.0000    -0.0002    -0.0000    -0.0000    -0.0000    -0.0000    -0.0000 </r>
        <r>     0.0887    -0.0000     0.1069    -0.0000     0.0356     0.0014     0.0019     0.0000     0.0006     0.0041 </r>
        <r>     0.1941     0.0103     0.0575     0.0032     0.0614     0.0038     0.0086     0.0001     0.0138     0.0018 </r>
        <r>     0.2995     0.0256     0.3601     0.0081     0.2255     0.0125     0.0306     0.0002     0.0374     0.0134 </r>
        <r>     0.4050    -0.0000    -0.0002    -0.0000    -0.0001    -0.0000    -0.0000    -0.0000    -0.0000    -0.0000 </r>
        <r>     0.5104     0.0035     0.0077     0.0620     0.0233     0.0025     0.0024     0.0098     0.0073     0.0008 </r>
        <r>     0.6159     0.0510     0.1251     0.2490     0.1939     0.0338     0.0224     0.0465     0.0345     0.0131 </r>
        <r>     0.7213     0.0086     0.0912     0.0504     0.0418     0.0105     0.0004     0.0094     0.0001     0.0165 </r>
        <r>     0.8268     0.0311     0.3102     0.2892     0.1593     0.0225     0.0308     0.0635     0.0126     0.0332 </r>
        <r>     0.9322    -0.0013     0.3401    -0.0036     0.1127     0.0202     0.0172    -0.0015     0.0057     0.0611 </r>
        <r>     1.0377     0.0457     0.0224     0.3064     0.0487     0.0099     0.0030     0.0852     0.0098     0.0057 </r>
        <r>     1.1431     0.0122     0.0296     0.2031     0.0171     0.0053     0.0003     0.0361     0.0002     0.0080 </r>
        <r>     1.2485     0.0122     0.0373     0.3015     0.0593     0.0162     0.0080     0.0669     0.0068     0.0097 </r>
        <r>     1.3540    -0.0004     0.1807    -0.0096     0.0587     0.0100     0.0296    -0.0021     0.0098     0.0312 </r>
        <r>     1.4594     0.0000     0.2380     0.0000     0.0793     0.0133     0.0402     0.0000     0.0134     0.0398 </r>
        <r>     1.5649    -0.0000    -0.0010    -0.0000    -0.0010    -0.0004    -0.0000    -0.0000    -0.0000    -0.0004 </r>
        <r>     1.6703    -0.0000     0.0930    -0.0080     0.0495     0.0126     0.0203    -0.0041     0.0067     0.0173 </r>
        <r>     1.7758     0.0006     0.0622     0.2385     0.0858     0.0635     0.0047     0.1237     0.0106     0.0372 </r>
        <r>     1.8812     0.0004     0.2029     0.0061     0.0692     0.0202     0.0542     0.0053     0.0183     0.0604 </r>
        <r>     1.9866     0.0049     0.0208     0.0781     0.0337     0.0052     0.0042     0.0673     0.0049     0.0046 </r>
        <r>     2.0921    -0.0000     0.0791    -0.0000     0.0534     0.0314     0.0226    -0.0000     0.0122     0.0416 </r>
        <r>     2.1975     0.0000     0.0468     0.0000     0.0147     0.0055     0.0193     0.0000     0.0063     0.0183 </r>
        <r>     2.3030    -0.0000    -0.0000    -0.0000    -0.0000    -0.0000    -0.0000    -0.0000    -0.0000    -0.0000 </r>
        <r>     2.4084    -0.0000     0.0154    -0.0000     0.0154     0.0174     0.0070    -0.0000     0.0070     0.0175 </r>
        <r>     2.5139     0.0000     0.0086     0.0037     0.0086     0.0096     0.0038     0.0071     0.0039     0.0096 </r>
        <r>     2.6193     0.0000     0.0090     0.0063     0.0090     0.0148     0.0066     0.0122     0.0066     0.0148 </r>
        <r>     2.7248    -0.0000    -0.0000    -0.0000    -0.0000    -0.0000    -0.0000    -0.0000    -0.0000    -0.0000 </r>
        <r>     2.8302     0.0000     0.0000     0.0000     0.0000     0.0000     0.0000     0.0000     0.0000     0.0000 </r>
        <r>     2.9356     0.0000     0.0000     0.0000     0.0000     0.0000     0.0000     0.0000     0.0000     0.0000 </r>
        <r>     3.0411     0.0000     0.0000     0.0000     0.0000     0.0000     0.0000     0.0000     0.0000     0.0000 </r>
        <r>     3.1465     0.0000     0.0000     0.0000     0.0000     0.0000     0.0000     0.0000     0.0000     0.0000 </r>
        <r>     3.2520     0.0000     0.0000     0.0000     0.0000     0.0000     0.0000     0.0000     0.0000     0.0000 </r>
        <r>     3.3574     0.0000     0.0000     0.0000     0.0000     0.0000     0.0000     0.0000     0.0000     0.0000 </r>
        <r>     3.4629     0.0000     0.0000     0.0000     0.0000     0.0000     0.0000     0.0000     0.0000     0.0000 </r>
        <r>     3.5683     0.0000     0.0000     0.0000     0.0000     0.0000     0.0000     0.0000     0.0000     0.0000 </r>
        <r>     3.6738     0.0000     0.0000     0.0000     0.0000     0.0000     0.0000     0.0000     0.0000     0.0000 </r>
        <r>     3.7792     0.0000     0.0000     0.0000     0.0000     0.0000     0.0000     0.0000     0.0000     0.0000 </r>
        <r>     3.8846    -0.0000    -0.0000    -0.0000    -0.0000    -0.0000    -0.0000    -0.0000    -0.0000    -0.0000 </r>
        <r>     3.9901    -0.0000    -0.0000    -0.0000    -0.0000    -0.0000    -0.0000    -0.0000    -0.0000    -0.0000 </r>
        <r>     4.0955    -0.0007    -0.0000    -0.0000    -0.0000    -0.0000    -0.0000    -0.0000    -0.0000    -0.0000 </r>
        <r>     4.2010     0.0434     0.0000     0.0002     0.0000     0.0000     0.0000     0.0000     0.0000     0.0000 </r>
        <r>     4.3064    -0.0001    -0.0000    -0.0000    -0.0000    -0.0000    -0.0000    -0.0000    -0.0000    -0.0000 </r>
        <r>     4.4119     0.0000     0.0000     0.0000     0.0000     0.0000     0.0000     0.0000     0.0000     0.0000 </r>
        <r>     4.5173     0.0000     0.0000     0.0000     0.0000     0.0000     0.0000     0.0000     0.0000     0.0000 </r>
        <r>     4.6227     0.0000     0.0000     0.0000     0.0000     0.0000     0.0000     0.0000     0.0000     0.0000 </r>
        <r>     4.7282     0.0000     0.0000     0.0000     0.0000     0.0000     0.0000     0.0000     0.0000     0.0000 </r>
        <r>     4.8336     0.0000     0.0000     0.0000     0.0000     0.0000     0.0000     0.0000     0.0000     0.0000 </r>
        <r>     4.9391     0.0000     0.0000     0.0000     0.0000     0.0000     0.0000     0.0000     0.0000     0.0000 </r>
        <r>     5.0445     0.0000     0.0000     0.0000     0.0000     0.0000     0.0000     0.0000     0.0000     0.0000 </r>
        <r>     5.1500    -0.0000    -0.0000    -0.0000    -0.0000    -0.0000    -0.0000    -0.0000    -0.0000    -0.0000 </r>
        <r>     5.2554    -0.0000    -0.0000    -0.0000    -0.0000    -0.0000    -0.0000    -0.0000    -0.0000    -0.0000 </r>
        <r>     5.3609    -0.0018    -0.0000    -0.0004    -0.0000    -0.0000    -0.0000    -0.0001    -0.0000    -0.0000 </r>
        <r>     5.4663     0.0584     0.0000     0.0117     0.0000     0.0000     0.0000     0.0048     0.0000     0.0000 </r>
        <r>     5.5717    -0.0000    -0.0000    -0.0000    -0.0000    -0.0000    -0.0000    -0.0000    -0.0000    -0.0000 </r>
        <r>     5.6772     0.0000     0.0000     0.0000     0.0000     0.0000     0.0000     0.0000     0.0000     0.0000 </r>
        <r>     5.7826     0.0000     0.0000     0.0000     0.0000     0.0000     0.0000     0.0000     0.0000     0.0000 </r>
        <r>     5.8881     0.0000     0.0000     0.0000     0.0000     0.0000     0.0000     0.0000     0.0000     0.0000 </r>
        <r>     5.9935     0.0000     0.0000     0.0000     0.0000     0.0000     0.0000     0.0000     0.0000     0.0000 </r>
        <r>     6.0990     0.0000     0.0000     0.0000     0.0000     0.0000     0.0000     0.0000     0.0000     0.0000 </r>
        <r>     6.2044    -0.0000    -0.0000    -0.0000    -0.0000    -0.0000    -0.0000    -0.0000    -0.0000    -0.0000 </r>
        <r>     6.3098    -0.0000    -0.0000    -0.0000    -0.0000    -0.0000    -0.0000    -0.0000    -0.0000    -0.0000 </r>
        <r>     6.4153    -0.0000    -0.0000    -0.0000    -0.0000    -0.0000    -0.0000    -0.0000    -0.0000    -0.0000 </r>
        <r>     6.5207     0.1076    -0.0003     0.0398    -0.0009    -0.0000    -0.0000     0.0039    -0.0000    -0.0000 </r>
        <r>     6.6262     0.2421     0.0174     0.0549     0.0523     0.0009     0.0006     0.0061     0.0019     0.0003 </r>
        <r>     6.7316     0.5444     0.0910     0.0572     0.2731     0.0259     0.0076     0.0264     0.0227     0.0086 </r>
        <r>     6.8371     0.1188     0.0291     0.0697     0.0873     0.0287     0.0059     0.0130     0.0176     0.0096 </r>
        <r>     6.9425    -0.0024    -0.0006    -0.0013    -0.0017    -0.0005    -0.0001    -0.0002    -0.0003    -0.0002 </r>
        <r>     7.0480     0.0000     0.0000     0.0000     0.0000     0.0000     0.0000     0.0000     0.0000     0.0000 </r>
        <r>     7.1534     0.0000     0.0000     0.0000     0.0000     0.0000     0.0000     0.0000     0.0000     0.0000 </r>
        <r>     7.2588    -0.0000    -0.0000    -0.0000    -0.0000    -0.0000    -0.0000    -0.0000    -0.0000    -0.0000 </r>
        <r>     7.3643    -0.0000    -0.0000    -0.0000    -0.0000    -0.0000    -0.0000    -0.0000    -0.0000    -0.0000 </r>
        <r>     7.4697    -0.0038    -0.0006    -0.0015    -0.0017    -0.0017    -0.0000    -0.0002    -0.0000    -0.0006 </r>
        <r>     7.5752     0.4047     0.0844     0.1622     0.2531     0.1239     0.0019     0.0228     0.0056     0.0413 </r>
        <r>     7.6806     0.0707     0.0190     0.0226     0.0571     0.0072     0.0007     0.0039     0.0020     0.0024 </r>
        <r>     7.7861    -0.0036    -0.0005    -0.0000    -0.0014    -0.0004    -0.0000    -0.0002    -0.0000    -0.0001 </r>
        <r>     7.8915     0.1053     0.0141     0.0002     0.0423     0.0121     0.0000     0.0059     0.0000     0.0040 </r>
        <r>     7.9969    -0.0000    -0.0000    -0.0000    -0.0000    -0.0000    -0.0000    -0.0000    -0.0000    -0.0000 </r>
        <r>     8.1024    -0.0000    -0.0000    -0.0000    -0.0000    -0.0000    -0.0000    -0.0000    -0.0000    -0.0000 </r>
        <r>     8.2078     0.2271     0.0902     0.1134     0.0632     0.0136     0.0490     0.0372     0.0186     0.0196 </r>
        <r>     8.3133     0.5952     0.1267     0.1670     0.2415     0.0727     0.0388     0.0408     0.0326     0.0358 </r>
        <r>     8.4187     0.3644     0.1618     0.1299     0.1443     0.0179     0.0734     0.0338     0.0397     0.0229 </r>
        <r>     8.5242     0.0617     0.0492     0.0176     0.1137     0.0167     0.0491     0.0349     0.0600     0.0420 </r>
        <r>     8.6296     0.0451     0.0374     0.0128     0.0856     0.0112     0.0376     0.0243     0.0445     0.0323 </r>
        <r>     8.7351    -0.0000    -0.0000    -0.0000    -0.0000    -0.0000    -0.0000    -0.0000    -0.0000    -0.0000 </r>
        <r>     8.8405     0.1204     0.0124     0.0135     0.0109     0.0001     0.0008     0.0011     0.0009     0.0001 </r>
        <r>     8.9459     0.0735     0.0076     0.0082     0.0067     0.0000     0.0005     0.0007     0.0005     0.0001 </r>
        <r>     9.0514     0.0000     0.0000     0.0000     0.0000     0.0000     0.0000     0.0000     0.0000     0.0000 </r>
        <r>     9.1568     0.0000     0.0000     0.0000     0.0000     0.0000     0.0000     0.0000     0.0000     0.0000 </r>
        <r>     9.2623     0.0000     0.0000     0.0000     0.0000     0.0000     0.0000     0.0000     0.0000     0.0000 </r>
        <r>     9.3677    -0.0000    -0.0000    -0.0000    -0.0000    -0.0000    -0.0000    -0.0000    -0.0000    -0.0000 </r>
        <r>     9.4732    -0.0000    -0.0000    -0.0000    -0.0000    -0.0000    -0.0000    -0.0000    -0.0000    -0.0000 </r>
        <r>     9.5786    -0.0005    -0.0001    -0.0002    -0.0004    -0.0001    -0.0000    -0.0001    -0.0000    -0.0000 </r>
        <r>     9.6840     0.3305     0.0799     0.1051     0.2398     0.0474     0.0099     0.0582     0.0296     0.0158 </r>
        <r>     9.7895     0.0675     0.0391     0.0050     0.1173     0.0204     0.0053     0.0173     0.0158     0.0068 </r>
        <r>     9.8949     0.1358     0.0131     0.0123     0.0392     0.0233     0.0078     0.0244     0.0235     0.0078 </r>
        <r>    10.0004     0.3668     0.0198     0.2432     0.0594     0.0528     0.0088     0.0621     0.0263     0.0176 </r>
        <r>    10.1058     0.7244     0.0113     0.1901     0.0323     0.0484     0.0263     0.0807     0.0704     0.0162 </r>
        <r>    10.2113     0.1472     0.1064     0.0296     0.0249     0.1076     0.0108     0.0063     0.0157     0.1336 </r>
        <r>    10.3167     0.9594     0.1474     0.0929     0.1600     0.1264     0.0604     0.0272     0.0552     0.1137 </r>
        <r>    10.4222    -0.0040    -0.0008    -0.0009    -0.0012    -0.0008    -0.0003    -0.0002    -0.0005    -0.0008 </r>
        <r>    10.5276     0.0803     0.0012     0.1859     0.0035     0.0485     0.0013     0.0610     0.0038     0.0162 </r>
        <r>    10.6330     0.0435     0.0006     0.1008     0.0019     0.0263     0.0007     0.0331     0.0020     0.0088 </r>
        <r>    10.7385    -0.0032    -0.0001    -0.0011    -0.0003    -0.0000    -0.0001    -0.0002    -0.0002    -0.0000 </r>
        <r>    10.8439     0.1145     0.0021     0.0894     0.0062    -0.0000     0.0018     0.0153     0.0055    -0.0000 </r>
        <r>    10.9494     0.0732     0.0244     0.0564     0.0733     0.0663     0.0029     0.0445     0.0088     0.0221 </r>
        <r>    11.0548    -0.0002    -0.0000    -0.0004    -0.0000    -0.0000    -0.0000    -0.0003    -0.0000    -0.0000 </r>
        <r>    11.1603     0.0128    -0.0000     0.0292    -0.0000    -0.0000    -0.0000     0.0201    -0.0000    -0.0000 </r>
        <r>    11.2657     0.1045     0.0428     0.1657     0.0202     0.0059     0.0217     0.0411     0.0438     0.0127 </r>
        <r>    11.3712     0.0430     0.2010     0.3444     0.0277     0.0041     0.0497     0.1306     0.0523     0.0106 </r>
        <r>    11.4766     0.0015     0.0174     0.0299     0.0019     0.0002     0.0039     0.0144     0.0034     0.0006 </r>
        <r>    11.5820     0.0017     0.0000     0.0053     0.0000     0.0000     0.0000     0.0057     0.0000     0.0000 </r>
        <r>    11.6875    -0.0032    -0.0008    -0.0058    -0.0020    -0.0006    -0.0005    -0.0030    -0.0014    -0.0002 </r>
        <r>    11.7929     0.1287     0.0308     0.2306     0.0824     0.0245     0.0216     0.1237     0.0581     0.0083 </r>
        <r>    11.8984     0.0517     0.0423     0.2741     0.0530     0.0091     0.0216     0.1188     0.0193     0.0040 </r>
        <r>    12.0038     0.0016     0.0023     0.0059     0.0029     0.0005     0.0012     0.0061     0.0010     0.0002 </r>
        <r>    12.1093    -0.0010    -0.0016    -0.0071    -0.0048    -0.0019    -0.0008    -0.0009    -0.0024    -0.0006 </r>
        <r>    12.2147     0.0354     0.1557     0.2437     0.2668     0.0725     0.0279     0.0320     0.0837     0.0293 </r>
        <r>    12.3201     0.1014     0.2693     0.3578     0.3993     0.1342     0.0202     0.0359     0.0604     0.0591 </r>
        <r>    12.4256     0.0520     0.0302     0.1291     0.1038     0.0036     0.0026     0.0429     0.0079     0.0007 </r>
        <r>    12.5310     0.0294     0.0025     0.0705     0.0076     0.0133     0.0052     0.0498     0.0157     0.0044 </r>
        <r>    12.6365     0.0344     0.0137     0.1804     0.0251     0.0009     0.0144     0.1730     0.0414     0.0003 </r>
        <r>    12.7419     0.0007     0.3436     0.0044     0.2357     0.0274     0.0609     0.0029     0.0213     0.0278 </r>
        <r>    12.8474    -0.0000    -0.0095    -0.0000    -0.0059    -0.0006    -0.0020    -0.0000    -0.0007    -0.0006 </r>
        <r>    12.9528     0.0000    -0.0142     0.0073    -0.0047    -0.0001    -0.0015     0.0001    -0.0005    -0.0003 </r>
        <r>    13.0583    -0.0023     0.4357     0.0910     0.1424     0.0011     0.0447    -0.0002     0.0139     0.0082 </r>
        <r>    13.1637     0.1601     0.0847     0.6232     0.2437     0.1011     0.0156     0.0780     0.0489     0.0364 </r>
        <r>    13.2691     0.0008     1.2050     0.0316     0.4928     0.0327     0.1828    -0.0001     0.0625     0.0965 </r>
        <r>    13.3746    -0.0000    -0.0062    -0.0000    -0.0021    -0.0001    -0.0013    -0.0000    -0.0004    -0.0003 </r>
        <r>    13.4800     0.0000     0.1760     0.0000     0.1760     0.0263     0.0012     0.0000     0.0012     0.0263 </r>
        <r>    13.5855    -0.0000    -0.0049    -0.0000    -0.0049    -0.0007    -0.0000    -0.0000    -0.0000    -0.0007 </r>
        <r>    13.6909     0.0018     0.0124     0.0981     0.0372     0.0263     0.0045     0.0359     0.0134     0.0088 </r>
        <r>    13.7964     0.0014     0.0007     0.0780     0.0265     0.0205     0.0031     0.0286     0.0105     0.0058 </r>
        <r>    13.9018    -0.0006     0.6974    -0.0026     0.2466     0.0300     0.0313    -0.0010     0.0109     0.0855 </r>
        <r>    14.0072     0.0193     0.3224     0.0800     0.2244     0.0566     0.0481     0.0294     0.0049     0.1075 </r>
        <r>    14.1127    -0.0000    -0.0000    -0.0000    -0.0000    -0.0000    -0.0000    -0.0000    -0.0000    -0.0000 </r>
        <r>    14.2181    -0.0000    -0.0000    -0.0000    -0.0000    -0.0000    -0.0000    -0.0000    -0.0000    -0.0000 </r>
        <r>    14.3236    -0.0000    -0.0000    -0.0000    -0.0000    -0.0000    -0.0000    -0.0000    -0.0000    -0.0000 </r>
        <r>    14.4290     0.0000     0.2718     0.0000     0.0906     0.0052     0.0698     0.0000     0.0233     0.0157 </r>
        <r>    14.5345     0.0000     0.5819     0.0000     0.1940     0.0303     0.0243     0.0000     0.0081     0.0909 </r>
        <r>    14.6399    -0.0003     0.0106    -0.0029    -0.0049    -0.0001    -0.0014    -0.0003    -0.0010    -0.0000 </r>
        <r>    14.7454     0.0136     0.2363     0.1200     0.3796     0.0537     0.0853     0.0157     0.0742     0.1004 </r>
        <r>    14.8508    -0.0000     0.2070    -0.0002     0.0688     0.0149     0.0154    -0.0001     0.0048     0.0453 </r>
        <r>    14.9562     0.0000     0.0675     0.0000     0.0225     0.0049     0.0050     0.0000     0.0017     0.0148 </r>
        <r>    15.0617     0.0000     0.0000     0.0000     0.0000     0.0000     0.0000     0.0000     0.0000     0.0000 </r>
        <r>    15.1671    -0.0000    -0.0000    -0.0000    -0.0000    -0.0000    -0.0000    -0.0000    -0.0000    -0.0000 </r>
        <r>    15.2726    -0.0000    -0.0000    -0.0000    -0.0000    -0.0000    -0.0000    -0.0000    -0.0000    -0.0000 </r>
        <r>    15.3780     0.0006     0.0037     0.1820     0.0110     0.0024     0.0021     0.0186     0.0062     0.0008 </r>
        <r>    15.4835     0.0002     0.0012     0.0595     0.0036     0.0008     0.0007     0.0061     0.0020     0.0003 </r>
        <r>    15.5889    -0.0000     0.2420    -0.0000     0.0806     0.0098     0.0335    -0.0000     0.0112     0.0293 </r>
        <r>    15.6943     0.0008     0.1658     0.3274     0.5434     0.0206     0.0054     0.0127     0.0664     0.0600 </r>
        <r>    15.7998    -0.0000    -0.0061    -0.0129    -0.0204    -0.0023    -0.0013    -0.0004    -0.0026    -0.0027 </r>
        <r>    15.9052     0.0000     0.0285     0.0660     0.0749     0.0644     0.0448     0.0000     0.0150     0.0275 </r>
        <r>    16.0107    -0.0000    -0.0000    -0.0000    -0.0000    -0.0000    -0.0000    -0.0000    -0.0000    -0.0000 </r>
        <r>    16.1161     0.0000     0.0000     0.0000     0.0000     0.0000     0.0000     0.0000     0.0000     0.0000 </r>
        <r>    16.2216     0.0000     0.0000     0.0000     0.0000     0.0000     0.0000     0.0000     0.0000     0.0000 </r>
        <r>    16.3270     0.0000     0.0000     0.0000     0.0000     0.0000     0.0000     0.0000     0.0000     0.0000 </r>
        <r>    16.4325     0.0000     0.0000     0.0000     0.0000     0.0000     0.0000     0.0000     0.0000     0.0000 </r>
[...]
        <r>  0.0002  0.0000  0.0027  0.0000  0.0000  0.0000  0.0000  0.0000  0.0000 </r>
       </set>
       <set comment="band 2">
        <r>  0.1560  0.0111  0.0121  0.0333  0.0046  0.0008  0.0033  0.0025  0.0015 </r>
        <r>  0.0280  0.0001  0.0310  0.0004  0.0000  0.0000  0.0042  0.0001  0.0000 </r>
        <r>  0.0002  0.0000  0.0027  0.0000  0.0000  0.0000  0.0000  0.0000  0.0000 </r>
        <r>  0.5235  0.0006  0.0000  0.0017  0.0000  0.0000  0.0000  0.0000  0.0000 </r>
       </set>
       <set comment="band 3">
        <r>  0.2487  0.0125  0.0111  0.0375  0.0151  0.0016  0.0063  0.0048  0.0050 </r>
        <r>  0.0246  0.0052  0.0009  0.0156  0.0012  0.0018  0.0176  0.0053  0.0004 </r>
        <r>  0.0019  0.0007  0.1319  0.0020  0.0000  0.0000  0.0000  0.0000  0.0000 </r>
        <r>  0.0911  0.0348  0.0060  0.1043  0.0000  0.0000  0.0000  0.0000  0.0000 </r>
       </set>
       <set comment="band 4">
        <r>  0.0246  0.0052  0.0009  0.0156  0.0012  0.0018  0.0176  0.0053  0.0004 </r>
        <r>  0.2487  0.0125  0.0111  0.0375  0.0151  0.0016  0.0063  0.0048  0.0050 </r>
        <r>  0.0911  0.0348  0.0060  0.1043  0.0000  0.0000  0.0000  0.0000  0.0000 </r>
        <r>  0.0019  0.0007  0.1319  0.0020  0.0000  0.0000  0.0000  0.0000  0.0000 </r>
       </set>
       <set comment="band 5">
        <r>  0.0069  0.0137  0.1416  0.0410  0.0115  0.0004  0.0195  0.0012  0.0038 </r>
        <r>  0.0215  0.0034  0.0217  0.0102  0.0069  0.0004  0.0112  0.0013  0.0023 </r>
        <r>  0.0004  0.0051  0.2237  0.0152  0.0000  0.0000  0.0000  0.0000  0.0000 </r>
        <r>  0.0019  0.0524  0.0018  0.1572  0.0000  0.0000  0.0000  0.0000  0.0000 </r>
       </set>
       <set comment="band 6">
        <r>  0.0215  0.0034  0.0217  0.0102  0.0069  0.0004  0.0112  0.0013  0.0023 </r>
        <r>  0.0069  0.0137  0.1416  0.0410  0.0115  0.0004  0.0195  0.0012  0.0038 </r>
        <r>  0.0019  0.0524  0.0018  0.1572  0.0000  0.0000  0.0000  0.0000  0.0000 </r>
        <r>  0.0004  0.0051  0.2237  0.0152  0.0000  0.0000  0.0000  0.0000  0.0000 </r>
       </set>
       <set comment="band 7">
        <r>  0.0000  0.0075  0.0000  0.0025  0.0000  0.0062  0.0000  0.0021  0.0001 </r>
        <r>  0.0000  0.1487  0.0000  0.0496  0.0114  0.0145  0.0000  0.0048  0.0342 </r>
        <r>  0.0000  0.3927  0.0000  0.1309  0.0000  0.0000  0.0000  0.0000  0.0000 </r>
        <r>  0.0000  0.0001  0.0000  0.0000  0.0000  0.0000  0.0000  0.0000  0.0000 </r>
       </set>
       <set comment="band 8">
        <r>  0.0000  0.1487  0.0000  0.0496  0.0114  0.0145  0.0000  0.0048  0.0342 </r>
        <r>  0.0000  0.0075  0.0000  0.0025  0.0000  0.0062  0.0000  0.0021  0.0001 </r>
        <r>  0.0000  0.0001  0.0000  0.0000  0.0000  0.0000  0.0000  0.0000  0.0000 </r>
        <r>  0.0000  0.3927  0.0000  0.1309  0.0000  0.0000  0.0000  0.0000  0.0000 </r>
       </set>
       <set comment="band 9">
        <r>  0.0732  0.0337  0.0285  0.1011  0.0076  0.0007  0.0040  0.0022  0.0025 </r>
        <r>  0.0563  0.0010  0.0133  0.0031  0.0062  0.0005  0.0031  0.0015  0.0021 </r>
        <r>  0.0056  0.0020  0.1308  0.0061  0.0000  0.0000  0.0000  0.0000  0.0000 </r>
        <r>  0.1213  0.0066  0.0037  0.0197  0.0000  0.0000  0.0000  0.0000  0.0000 </r>
       </set>
       <set comment="band 10">
        <r>  0.0563  0.0010  0.0133  0.0031  0.0062  0.0005  0.0031  0.0015  0.0021 </r>
        <r>  0.0732  0.0337  0.0285  0.1011  0.0076  0.0007  0.0040  0.0022  0.0025 </r>
        <r>  0.1213  0.0066  0.0037  0.0197  0.0000  0.0000  0.0000  0.0000  0.0000 </r>
        <r>  0.0056  0.0020  0.1308  0.0061  0.0000  0.0000  0.0000  0.0000  0.0000 </r>
       </set>
       <set comment="band 11">
        <r>  0.1574  0.0074  0.0914  0.0222  0.0265  0.0048  0.0295  0.0144  0.0088 </r>
        <r>  0.0447  0.0034  0.0420  0.0103  0.0026  0.0001  0.0046  0.0003  0.0009 </r>
        <r>  0.0015  0.0021  0.0390  0.0064  0.0000  0.0000  0.0000  0.0000  0.0000 </r>
        <r>  0.0112  0.0395  0.0022  0.1185  0.0000  0.0000  0.0000  0.0000  0.0000 </r>
       </set>
       <set comment="band 12">
        <r>  0.0447  0.0034  0.0420  0.0103  0.0026  0.0001  0.0046  0.0003  0.0009 </r>
        <r>  0.1574  0.0074  0.0914  0.0222  0.0265  0.0048  0.0295  0.0144  0.0088 </r>
        <r>  0.0112  0.0395  0.0022  0.1185  0.0000  0.0000  0.0000  0.0000  0.0000 </r>
        <r>  0.0015  0.0021  0.0390  0.0064  0.0000  0.0000  0.0000  0.0000  0.0000 </r>
       </set>
       <set comment="band 13">
        <r>  0.0403  0.0252  0.1187  0.0756  0.0222  0.0008  0.0114  0.0023  0.0074 </r>
        <r>  0.0075  0.0080  0.0255  0.0241  0.0231  0.0065  0.0014  0.0196  0.0077 </r>
        <r>  0.0021  0.0112  0.0413  0.0336  0.0000  0.0000  0.0000  0.0000  0.0000 </r>
        <r>  0.0019  0.0110  0.0453  0.0331  0.0000  0.0000  0.0000  0.0000  0.0000 </r>
       </set>
       <set comment="band 14">
        <r>  0.0075  0.0080  0.0255  0.0241  0.0231  0.0065  0.0014  0.0196  0.0077 </r>
        <r>  0.0403  0.0252  0.1187  0.0756  0.0222  0.0008  0.0114  0.0023  0.0074 </r>
        <r>  0.0019  0.0110  0.0453  0.0331  0.0000  0.0000  0.0000  0.0000  0.0000 </r>
        <r>  0.0021  0.0112  0.0413  0.0336  0.0000  0.0000  0.0000  0.0000  0.0000 </r>
       </set>
       <set comment="band 15">
        <r>  0.0000  0.3770  0.0000  0.1257  0.0107  0.0170  0.0000  0.0057  0.0320 </r>
        <r>  0.0000  0.0009  0.0000  0.0003  0.0052  0.0011  0.0000  0.0004  0.0156 </r>
        <r>  0.0000  0.0111  0.0000  0.0037  0.0000  0.0000  0.0000  0.0000  0.0000 </r>
        <r>  0.0000  0.0812  0.0000  0.0271  0.0000  0.0000  0.0000  0.0000  0.0000 </r>
       </set>
       <set comment="band 16">
        <r>  0.0000  0.0009  0.0000  0.0003  0.0052  0.0011  0.0000  0.0004  0.0156 </r>
        <r>  0.0000  0.3770  0.0000  0.1257  0.0107  0.0170  0.0000  0.0057  0.0320 </r>
        <r>  0.0000  0.0812  0.0000  0.0271  0.0000  0.0000  0.0000  0.0000  0.0000 </r>
        <r>  0.0000  0.0111  0.0000  0.0037  0.0000  0.0000  0.0000  0.0000  0.0000 </r>
       </set>
      </set>
      <set comment="kpoint 11">
       <set comment="band 1">
        <r>  0.0257  0.0000  0.0330  0.0000  0.0000  0.0000  0.0065  0.0000  0.0000 </r>
        <r>  0.0339  0.0270  0.0025  0.0811  0.0143  0.0022  0.0005  0.0067  0.0048 </r>
        <r>  0.6009  0.0000  0.0000  0.0001  0.0000  0.0000  0.0000  0.0000  0.0000 </r>
        <r>  0.0002  0.0000  0.0006  0.0000  0.0000  0.0000  0.0000  0.0000  0.0000 </r>
       </set>
       <set comment="band 2">
        <r>  0.0339  0.0270  0.0025  0.0811  0.0143  0.0022  0.0005  0.0067  0.0048 </r>
        <r>  0.0257  0.0000  0.0330  0.0000  0.0000  0.0000  0.0065  0.0000  0.0000 </r>
        <r>  0.0002  0.0000  0.0006  0.0000  0.0000  0.0000  0.0000  0.0000  0.0000 </r>
        <r>  0.6009  0.0000  0.0000  0.0001  0.0000  0.0000  0.0000  0.0000  0.0000 </r>
       </set>
       <set comment="band 3">
        <r>  0.3924  0.0152  0.0071  0.0457  0.0015  0.0006  0.0002  0.0019  0.0005 </r>
        <r>  0.0032  0.0073  0.0001  0.0219  0.0012  0.0021  0.0004  0.0062  0.0004 </r>
        <r>  0.0006  0.0001  0.0489  0.0003  0.0000  0.0000  0.0000  0.0000  0.0000 </r>
        <r>  0.0043  0.0517  0.0002  0.1550  0.0000  0.0000  0.0000  0.0000  0.0000 </r>
       </set>
       <set comment="band 4">
        <r>  0.0032  0.0073  0.0001  0.0219  0.0012  0.0021  0.0004  0.0062  0.0004 </r>
        <r>  0.3924  0.0152  0.0071  0.0457  0.0015  0.0006  0.0002  0.0019  0.0005 </r>
        <r>  0.0043  0.0517  0.0002  0.1550  0.0000  0.0000  0.0000  0.0000  0.0000 </r>
        <r>  0.0006  0.0001  0.0489  0.0003  0.0000  0.0000  0.0000  0.0000  0.0000 </r>
       </set>
       <set comment="band 5">
        <r>  0.0000  0.0078  0.0000  0.0026  0.0000  0.0062  0.0000  0.0021  0.0000 </r>
        <r>  0.0000  0.1899  0.0000  0.0633  0.0034  0.0168  0.0000  0.0056  0.0103 </r>
        <r>  0.0000  0.3665  0.0000  0.1221  0.0000  0.0000  0.0000  0.0000  0.0000 </r>
        <r>  0.0000  0.0000  0.0000  0.0000  0.0000  0.0000  0.0000  0.0000  0.0000 </r>
       </set>
       <set comment="band 6">
        <r>  0.0000  0.1899  0.0000  0.0633  0.0034  0.0168  0.0000  0.0056  0.0103 </r>
        <r>  0.0000  0.0078  0.0000  0.0026  0.0000  0.0062  0.0000  0.0021  0.0000 </r>
        <r>  0.0000  0.0000  0.0000  0.0000  0.0000  0.0000  0.0000  0.0000  0.0000 </r>
        <r>  0.0000  0.3665  0.0000  0.1221  0.0000  0.0000  0.0000  0.0000  0.0000 </r>
       </set>
       <set comment="band 7">
        <r>  0.0021  0.0041  0.1644  0.0122  0.0024  0.0001  0.0343  0.0002  0.0008 </r>
        <r>  0.0187  0.0099  0.0028  0.0297  0.0080  0.0001  0.0047  0.0001  0.0027 </r>
        <r>  0.0001  0.0000  0.3838  0.0001  0.0000  0.0000  0.0000  0.0000  0.0000 </r>
        <r>  0.0093  0.0242  0.0001  0.0728  0.0000  0.0000  0.0000  0.0000  0.0000 </r>
       </set>
       <set comment="band 8">
        <r>  0.0187  0.0099  0.0028  0.0298  0.0080  0.0001  0.0047  0.0001  0.0027 </r>
        <r>  0.0021  0.0041  0.1644  0.0122  0.0024  0.0001  0.0343  0.0002  0.0008 </r>
        <r>  0.0093  0.0242  0.0001  0.0728  0.0000  0.0000  0.0000  0.0000  0.0000 </r>
        <r>  0.0001  0.0000  0.3838  0.0001  0.0000  0.0000  0.0000  0.0000  0.0000 </r>
       </set>
       <set comment="band 9">
        <r>  0.0919  0.0286  0.0344  0.0859  0.0287  0.0050  0.0003  0.0151  0.0096 </r>
        <r>  0.0577  0.0067  0.0444  0.0200  0.0040  0.0017  0.0150  0.0051  0.0013 </r>
        <r>  0.0005  0.0015  0.0206  0.0045  0.0000  0.0000  0.0000  0.0000  0.0000 </r>
        <r>  0.1086  0.0009  0.0000  0.0026  0.0000  0.0000  0.0000  0.0000  0.0000 </r>
       </set>
       <set comment="band 10">
        <r>  0.0577  0.0067  0.0444  0.0200  0.0040  0.0017  0.0150  0.0051  0.0013 </r>
        <r>  0.0919  0.0286  0.0344  0.0859  0.0287  0.0050  0.0003  0.0151  0.0096 </r>
        <r>  0.1086  0.0009  0.0000  0.0026  0.0000  0.0000  0.0000  0.0000  0.0000 </r>
        <r>  0.0005  0.0015  0.0206  0.0045  0.0000  0.0000  0.0000  0.0000  0.0000 </r>
       </set>
       <set comment="band 11">
        <r>  0.1912  0.0022  0.0244  0.0066  0.0321  0.0130  0.0079  0.0389  0.0107 </r>
        <r>  0.0626  0.0023  0.0976  0.0068  0.0035  0.0000  0.0248  0.0001  0.0012 </r>
        <r>  0.0001  0.0025  0.0182  0.0074  0.0000  0.0000  0.0000  0.0000  0.0000 </r>
        <r>  0.0000  0.0289  0.0334  0.0868  0.0000  0.0000  0.0000  0.0000  0.0000 </r>
       </set>
       <set comment="band 12">
        <r>  0.0626  0.0023  0.0976  0.0068  0.0035  0.0000  0.0248  0.0001  0.0012 </r>
        <r>  0.1912  0.0022  0.0244  0.0066  0.0321  0.0130  0.0079  0.0389  0.0107 </r>
        <r>  0.0000  0.0289  0.0334  0.0868  0.0000  0.0000  0.0000  0.0000  0.0000 </r>
        <r>  0.0001  0.0025  0.0182  0.0074  0.0000  0.0000  0.0000  0.0000  0.0000 </r>
       </set>
       <set comment="band 13">
        <r>  0.0098  0.0048  0.1088  0.0143  0.0034  0.0072  0.0137  0.0215  0.0011 </r>
        <r>  0.0084  0.0019  0.0022  0.0056  0.0316  0.0006  0.0007  0.0019  0.0105 </r>
        <r>  0.0096  0.0524  0.0063  0.1571  0.0000  0.0000  0.0000  0.0000  0.0000 </r>
        <r>  0.0008  0.0038  0.0905  0.0115  0.0000  0.0000  0.0000  0.0000  0.0000 </r>
       </set>
       <set comment="band 14">
        <r>  0.0084  0.0019  0.0022  0.0056  0.0316  0.0006  0.0007  0.0019  0.0105 </r>
        <r>  0.0098  0.0048  0.1088  0.0143  0.0034  0.0072  0.0137  0.0215  0.0011 </r>
        <r>  0.0008  0.0038  0.0905  0.0115  0.0000  0.0000  0.0000  0.0000  0.0000 </r>
        <r>  0.0096  0.0524  0.0063  0.1571  0.0000  0.0000  0.0000  0.0000  0.0000 </r>
       </set>
       <set comment="band 15">
        <r>  0.0000  0.2873  0.0000  0.0958  0.0024  0.0678  0.0000  0.0226  0.0073 </r>
        <r>  0.0000  0.0168  0.0000  0.0056  0.0034  0.0103  0.0000  0.0034  0.0103 </r>
        <r>  0.0000  0.0601  0.0000  0.0200  0.0000  0.0000  0.0000  0.0000  0.0000 </r>
        <r>  0.0000  0.0679  0.0000  0.0226  0.0000  0.0000  0.0000  0.0000  0.0000 </r>
       </set>
       <set comment="band 16">
        <r>  0.0000  0.0168  0.0000  0.0056  0.0034  0.0103  0.0000  0.0034  0.0103 </r>
        <r>  0.0000  0.2873  0.0000  0.0958  0.0024  0.0678  0.0000  0.0226  0.0073 </r>
        <r>  0.0000  0.0679  0.0000  0.0226  0.0000  0.0000  0.0000  0.0000  0.0000 </r>
        <r>  0.0000  0.0601  0.0000  0.0200  0.0000  0.0000  0.0000  0.0000  0.0000 </r>
       </set>
      </set>
      <set comment="kpoint 12">
       <set comment="band 1">
        <r>  0.0256  0.0001  0.0328  0.0000  0.0000  0.0001  0.0063  0.0000  0.0000 </r>
        <r>  0.0429  0.0669  0.0029  0.0362  0.0074  0.0055  0.0006  0.0031  0.0114 </r>
        <r>  0.5943  0.0010  0.0000  0.0004  0.0000  0.0000  0.0000  0.0000  0.0000 </r>
        <r>  0.0002  0.0000  0.0008  0.0000  0.0000  0.0000  0.0000  0.0000  0.0000 </r>
       </set>
       <set comment="band 2">
        <r>  0.0429  0.0669  0.0029  0.0362  0.0074  0.0055  0.0006  0.0031  0.0114 </r>
        <r>  0.0256  0.0001  0.0328  0.0000  0.0000  0.0001  0.0063  0.0000  0.0000 </r>
        <r>  0.0002  0.0000  0.0008  0.0000  0.0000  0.0000  0.0000  0.0000  0.0000 </r>
        <r>  0.5943  0.0010  0.0000  0.0004  0.0000  0.0000  0.0000  0.0000  0.0000 </r>
       </set>
       <set comment="band 3">
        <r>  0.4040  0.0095  0.0037  0.0230  0.0019  0.0010  0.0009  0.0019  0.0058 </r>
        <r>  0.0042  0.0232  0.0007  0.0093  0.0010  0.0051  0.0024  0.0025  0.0012 </r>
        <r>  0.0005  0.0011  0.0659  0.0004  0.0000  0.0000  0.0000  0.0000  0.0000 </r>
        <r>  0.0271  0.1376  0.0001  0.0603  0.0000  0.0000  0.0000  0.0000  0.0000 </r>
       </set>
       <set comment="band 4">
        <r>  0.0042  0.0232  0.0007  0.0093  0.0010  0.0051  0.0024  0.0025  0.0012 </r>
        <r>  0.4040  0.0095  0.0037  0.0230  0.0019  0.0010  0.0009  0.0019  0.0058 </r>
        <r>  0.0271  0.1376  0.0001  0.0603  0.0000  0.0000  0.0000  0.0000  0.0000 </r>
        <r>  0.0005  0.0011  0.0659  0.0004  0.0000  0.0000  0.0000  0.0000  0.0000 </r>
       </set>
       <set comment="band 5">
        <r>  0.0018  0.0031  0.0005  0.0024  0.0003  0.0047  0.0000  0.0084  0.0007 </r>
        <r>  0.0187  0.1333  0.0004  0.1577  0.0043  0.0063  0.0012  0.0071  0.0039 </r>
        <r>  0.0011  0.1205  0.0001  0.2278  0.0000  0.0000  0.0000  0.0000  0.0000 </r>
        <r>  0.0000  0.0042  0.0141  0.0115  0.0000  0.0000  0.0000  0.0000  0.0000 </r>
       </set>
       <set comment="band 6">
        <r>  0.0187  0.1333  0.0004  0.1577  0.0043  0.0063  0.0012  0.0071  0.0039 </r>
        <r>  0.0018  0.0031  0.0005  0.0024  0.0003  0.0047  0.0000  0.0084  0.0007 </r>
        <r>  0.0000  0.0042  0.0141  0.0115  0.0000  0.0000  0.0000  0.0000  0.0000 </r>
        <r>  0.0011  0.1205  0.0001  0.2278  0.0000  0.0000  0.0000  0.0000  0.0000 </r>
       </set>
       <set comment="band 7">
        <r>  0.0016  0.0093  0.1892  0.0035  0.0006  0.0000  0.0284  0.0000  0.0009 </r>
        <r>  0.0098  0.0184  0.0020  0.0129  0.0045  0.0003  0.0057  0.0002  0.0066 </r>
        <r>  0.0001  0.0008  0.3567  0.0007  0.0000  0.0000  0.0000  0.0000  0.0000 </r>
        <r>  0.0021  0.0763  0.0014  0.0657  0.0000  0.0000  0.0000  0.0000  0.0000 </r>
       </set>
       <set comment="band 8">
        <r>  0.0098  0.0184  0.0020  0.0129  0.0045  0.0003  0.0057  0.0002  0.0066 </r>
        <r>  0.0016  0.0093  0.1892  0.0035  0.0006  0.0000  0.0284  0.0000  0.0009 </r>
        <r>  0.0021  0.0763  0.0014  0.0657  0.0000  0.0000  0.0000  0.0000  0.0000 </r>
        <r>  0.0001  0.0008  0.3567  0.0007  0.0000  0.0000  0.0000  0.0000  0.0000 </r>
       </set>
       <set comment="band 9">
        <r>  0.0014  0.0585  0.0033  0.0368  0.0057  0.0320  0.0004  0.0107  0.0067 </r>
        <r>  0.1468  0.0046  0.0751  0.0045  0.0027  0.0029  0.0251  0.0024  0.0068 </r>
        <r>  0.0054  0.0133  0.0332  0.0045  0.0000  0.0000  0.0000  0.0000  0.0000 </r>
        <r>  0.0821  0.0250  0.0174  0.0329  0.0000  0.0000  0.0000  0.0000  0.0000 </r>
       </set>
       <set comment="band 10">
        <r>  0.1468  0.0046  0.0751  0.0045  0.0027  0.0029  0.0251  0.0024  0.0068 </r>
        <r>  0.0014  0.0585  0.0033  0.0368  0.0057  0.0320  0.0004  0.0107  0.0067 </r>
        <r>  0.0821  0.0250  0.0174  0.0329  0.0000  0.0000  0.0000  0.0000  0.0000 </r>
        <r>  0.0054  0.0133  0.0332  0.0045  0.0000  0.0000  0.0000  0.0000  0.0000 </r>
       </set>
       <set comment="band 11">
        <r>  0.0428  0.0143  0.0043  0.0122  0.0011  0.0024  0.0005  0.0009  0.0029 </r>
        <r>  0.1217  0.0184  0.0345  0.0356  0.0326  0.0092  0.0073  0.0189  0.0310 </r>
        <r>  0.0173  0.0538  0.0093  0.1541  0.0000  0.0000  0.0000  0.0000  0.0000 </r>
        <r>  0.0006  0.0139  0.0235  0.0080  0.0000  0.0000  0.0000  0.0000  0.0000 </r>
       </set>
       <set comment="band 12">
        <r>  0.1217  0.0184  0.0345  0.0356  0.0326  0.0092  0.0073  0.0189  0.0310 </r>
        <r>  0.0428  0.0143  0.0043  0.0122  0.0011  0.0024  0.0005  0.0009  0.0029 </r>
        <r>  0.0006  0.0139  0.0235  0.0080  0.0000  0.0000  0.0000  0.0000  0.0000 </r>
        <r>  0.0173  0.0538  0.0093  0.1541  0.0000  0.0000  0.0000  0.0000  0.0000 </r>
       </set>
       <set comment="band 13">
        <r>  0.0000  0.0310  0.1234  0.0106  0.0013  0.0043  0.0288  0.0065  0.0039 </r>
        <r>  0.0802  0.0019  0.0038  0.0049  0.0032  0.0124  0.0028  0.0271  0.0058 </r>
        <r>  0.0015  0.1434  0.0000  0.0482  0.0000  0.0000  0.0000  0.0000  0.0000 </r>
        <r>  0.0053  0.0491  0.0198  0.0185  0.0000  0.0000  0.0000  0.0000  0.0000 </r>
       </set>
       <set comment="band 14">
        <r>  0.0802  0.0019  0.0038  0.0049  0.0032  0.0124  0.0028  0.0271  0.0058 </r>
        <r>  0.0000  0.0310  0.1234  0.0106  0.0013  0.0043  0.0288  0.0065  0.0039 </r>
        <r>  0.0053  0.0491  0.0198  0.0185  0.0000  0.0000  0.0000  0.0000  0.0000 </r>
        <r>  0.0015  0.1434  0.0000  0.0482  0.0000  0.0000  0.0000  0.0000  0.0000 </r>
       </set>
       <set comment="band 15">
        <r>  0.0000  0.1109  0.0002  0.1849  0.0168  0.0342  0.0000  0.0203  0.0505 </r>
        <r>  0.0055  0.0161  0.0546  0.0165  0.0008  0.0064  0.0050  0.0021  0.0004 </r>
        <r>  0.0000  0.0004  0.0160  0.0008  0.0000  0.0000  0.0000  0.0000  0.0000 </r>
        <r>  0.0203  0.0037  0.0338  0.0063  0.0000  0.0000  0.0000  0.0000  0.0000 </r>
       </set>
       <set comment="band 16">
        <r>  0.0055  0.0161  0.0546  0.0165  0.0008  0.0064  0.0050  0.0021  0.0004 </r>
        <r>  0.0000  0.1109  0.0002  0.1849  0.0168  0.0342  0.0000  0.0203  0.0505 </r>
        <r>  0.0203  0.0037  0.0338  0.0063  0.0000  0.0000  0.0000  0.0000  0.0000 </r>
        <r>  0.0000  0.0004  0.0160  0.0008  0.0000  0.0000  0.0000  0.0000  0.0000 </r>
       </set>
      </set>
     </set>
    </set>
   </array>
  </projected>
 </calculation>
 <structure name="finalpos" >
  <crystal>
   <varray name="basis" >
    <v>       3.24750543       0.00000000       0.00000000 </v>
    <v>      -1.62375272       2.81242236       0.00000000 </v>
    <v>       0.00000000       0.00000000       5.29081801 </v>
   </varray>
   <i name="volume">     48.32292909 </i>
   <varray name="rec_basis" >
    <v>       0.30792866       0.17778269       0.00000000 </v>
    <v>       0.00000000       0.35556537       0.00000000 </v>
    <v>       0.00000000       0.00000000       0.18900669 </v>
   </varray>
  </crystal>
  <varray name="positions" >
   <v>       0.33333300       0.66666700       0.99912000 </v>
   <v>       0.66666700       0.33333300       0.49912000 </v>
   <v>       0.33333300       0.66666700       0.37588000 </v>
   <v>       0.66666700       0.33333300       0.87588000 </v>
  </varray>
 </structure>
</modeling>
