unknown system                          
           1
     3.247505    0.000000    0.000000
    -1.623753    2.812422    0.000000
     0.000000    0.000000    5.290818
   Ga   N 
   2   2
Direct configuration=     1
   0.33333300  0.66666700  0.99912000
   0.66666700  0.33333300  0.49912000
   0.33333300  0.66666700  0.37588000
   0.66666700  0.33333300  0.87588000
