unknown system                          
   1.00000000000000     
     0.000000    2.715000    2.715000
     2.715000    0.000000    2.715000
     2.715000    2.715000    0.000000
   Si
     2
Direct
  0.000000  0.000000  0.000000
  0.250000  0.250000  0.250000
 
   32   32   32
 -7.6472     -5.9129     -1.2733      4.8232      10.641      14.809      16.731      16.630      15.271      13.520    
  11.799      10.262      8.9864      7.9968      7.2955      6.8775      6.7386      6.8775      7.2955      7.9968    
  8.9864      10.262      11.799      13.520      15.271      16.630      16.731      14.809      10.641      4.8232    
 -1.2733     -5.9129     -5.9128     -2.5205      3.1549      9.3806      14.504      17.525      18.309      17.427    
  15.771      14.004      12.350      10.916      9.7481      8.8624      8.2665      7.9665      7.9665      8.2665    
  8.8624      9.7481      10.916      12.350      14.004      15.771      17.427      18.309      17.525      14.504    
  9.3806      3.1549     -2.5207     -5.9129     -1.2732      3.1549      8.8962      14.256      17.955      19.503    
  19.193      17.794      16.091      14.415      12.899      11.605      10.563      9.7935      9.3192      9.1587    
  9.3192      9.7935      10.563      11.605      12.899      14.415      16.091      17.794      19.193      19.503    
  17.955      14.256      8.8962      3.1549     -1.2732     -2.9393      4.8232      9.3805      14.256      18.090    
  20.124      20.352      19.337      17.830      16.253      14.761      13.428      12.290      11.378      10.734    
  10.398      10.398      10.734      11.378      12.290      13.428      14.761      16.253      17.830      19.337    
  20.352      20.123      18.090      14.256      9.3806      4.8232      2.0631      2.0631      10.641      14.504    
  17.955      20.124      20.756      20.173      18.991      17.645      16.301      15.040      13.898      12.907    
  12.122      11.611      11.433      11.611      12.122      12.907      13.898      15.040      16.301      17.645    
  18.991      20.173      20.756      20.124      17.955      14.504      10.641      7.5919      6.4328      7.5919    
  14.809      17.525      19.503      20.352      20.173      19.399      18.396      17.322      16.253      15.219    
  14.242      13.379      12.718      12.356      12.356      12.718      13.379      14.242      15.219      16.253    
  17.322      18.396      19.399      20.173      20.352      19.504      17.525      14.809      12.172      10.546    
  10.545      12.172      16.731      18.309      19.193      19.337      18.991      18.396      17.680      16.907    
  16.091      15.238      14.388      13.633      13.097      12.901      13.097      13.633      14.388      15.238    
  16.091      16.907      17.680      18.396      18.991      19.337      19.193      18.309      16.731      14.868    
  13.356      12.774      13.356      14.868      16.630      17.427      17.794      17.830      17.644      17.322    
  16.907      16.396      15.771      15.044      14.276      13.601      13.200      13.200      13.601      14.276    
  15.043      15.771      16.396      16.907      17.322      17.645      17.830      17.794      17.427      16.630    
  15.512      14.403      13.709      13.709      14.403      15.512      15.271      15.771      16.091      16.253    
  16.301      16.253      16.091      15.771      15.271      14.604      13.877      13.301      13.080      13.301    
  13.877      14.604      15.271      15.771      16.091      16.253      16.301      16.253      16.091      15.771    
  15.271      14.604      13.877      13.301      13.080      13.301      13.877      14.604      13.520      14.004    
  14.415      14.761      15.040      15.219      15.238      15.044      14.604      13.963      13.309      12.895    
  12.895      13.309      13.963      14.604      15.043      15.238      15.219      15.040      14.761      14.415    
  14.004      13.520      12.975      12.425      11.963      11.695      11.695      11.963      12.425      12.975    
  11.799      12.350      12.899      13.428      13.898      14.242      14.388      14.276      13.877      13.309    
  12.810      12.611      12.810      13.309      13.877      14.276      14.388      14.242      13.898      13.428    
  12.899      12.350      11.799      11.256      10.745      10.314      10.021      9.9169      10.021      10.314    
  10.745      11.256      10.262      10.916      11.605      12.290      12.907      13.379      13.633      13.601    
  13.301      12.895      12.611      12.611      12.895      13.301      13.601      13.633      13.379      12.907    
  12.290      11.605      10.916      10.262      9.6642      9.1369      8.7016      8.3865      8.2200      8.2200    
  8.3866      8.7016      9.1369      9.6642      8.9863      9.7481      10.563      11.378      12.122      12.718    
  13.097      13.200      13.080      12.895      12.810      12.895      13.080      13.200      13.097      12.718    
  12.122      11.378      10.563      9.7481      8.9863      8.3082      7.7298      7.2616      6.9145      6.6998    
  6.6270      6.6998      6.9145      7.2616      7.7298      8.3082      7.9968      8.8624      9.7935      10.734    
  11.611      12.356      12.901      13.200      13.301      13.309      13.309      13.301      13.200      12.901    
  12.356      11.611      10.734      9.7936      8.8624      7.9968      7.2328      6.5884      6.0703      5.6804    
  5.4196      5.2888      5.2887      5.4195      5.6804      6.0703      6.5884      7.2328      7.2956      8.2666    
  9.3192      10.398      11.433      12.356      13.097      13.601      13.877      13.963      13.877      13.601    
  13.097      12.356      11.433      10.398      9.3192      8.2666      7.2956      6.4430      5.7269      5.1513    
  4.7129      4.4054      4.2233      4.1631      4.2233      4.4054      4.7129      5.1513      5.7269      6.4430    
  6.8775      7.9665      9.1587      10.398      11.611      12.718      13.633      14.276      14.604      14.604    
  14.276      13.633      12.718      11.611      10.398      9.1586      7.9665      6.8775      5.9274      5.1325    
  4.4939      4.0033      3.6488      3.4194      3.3068      3.3069      3.4195      3.6489      4.0033      4.4939    
  5.1325      5.9273      6.7385      7.9665      9.3192      10.734      12.122      13.379      14.388      15.043    
  15.271      15.043      14.388      13.379      12.122      10.734      9.3192      7.9665      6.7385      5.6731    
  4.7857      4.0740      3.5250      3.1213      2.8462      2.6864      2.6340      2.6864      2.8462      3.1213    
  3.5250      4.0740      4.7857      5.6731      6.8775      8.2665      9.7935      11.378      12.907      14.242    
  15.238      15.771      15.771      15.238      14.242      12.907      11.378      9.7935      8.2665      6.8775    
  5.6731      4.6718      3.8699      3.2505      2.7906      2.4672      2.2619      2.1624      2.1624      2.2619    
  2.4671      2.7905      3.2505      3.8700      4.6718      5.6731      7.2956      8.8624      10.563      12.290    
  13.898      15.219      16.091      16.396      16.091      15.219      13.898      12.290      10.563      8.8624    
  7.2956      5.9274      4.7857      3.8699      3.1612      2.6315      2.2522      1.9986      1.8533      1.8059    
  1.8533      1.9986      2.2522      2.6315      3.1612      3.8699      4.7857      5.9274      7.9968      9.7481    
  11.605      13.428      15.040      16.253      16.907      16.907      16.253      15.040      13.428      11.605    
  9.7481      7.9968      6.4430      5.1325      4.0740      3.2506      2.6315      2.1826      1.8727      1.6786    
  1.5851      1.5851      1.6786      1.8728      2.1826      2.6316      3.2505      4.0740      5.1325      6.4430    
  8.9863      10.916      12.899      14.761      16.301      17.322      17.680      17.322      16.301      14.761    
  12.899      10.916      8.9863      7.2328      5.7269      4.4939      3.5250      2.7905      2.2522      1.8727    
  1.6221      1.4794      1.4331      1.4794      1.6221      1.8727      2.2522      2.7905      3.5250      4.4939    
  5.7269      7.2328      10.262      12.350      14.415      16.253      17.645      18.396      18.396      17.644    
  16.253      14.415      12.350      10.262      8.3082      6.5884      5.1513      4.0033      3.1213      2.4672    
  1.9986      1.6786      1.4794      1.3838      1.3838      1.4794      1.6786      1.9986      2.4671      3.1213    
  4.0033      5.1514      6.5884      8.3082      11.799      14.004      16.091      17.830      18.991      19.399    
  18.991      17.830      16.091      14.004      11.799      9.6642      7.7298      6.0703      4.7129      3.6488    
  2.8462      2.2619      1.8533      1.5851      1.4331      1.3838      1.4331      1.5851      1.8533      2.2619    
  2.8462      3.6488      4.7129      6.0703      7.7298      9.6642      13.520      15.771      17.794      19.337    
  20.173      20.173      19.337      17.794      15.771      13.520      11.256      9.1369      7.2616      5.6804    
  4.4054      3.4194      2.6864      2.1624      1.8059      1.5851      1.4794      1.4794      1.5851      1.8059    
  2.1624      2.6864      3.4195      4.4054      5.6804      7.2616      9.1369      11.256      15.271      17.427    
  19.193      20.352      20.756      20.352      19.193      17.427      15.271      12.975      10.745      8.7016    
  6.9145      5.4196      4.2233      3.3069      2.6341      2.1624      1.8533      1.6786      1.6221      1.6786    
  1.8533      2.1624      2.6341      3.3069      4.2233      5.4196      6.9145      8.7016      10.745      12.975    
  16.630      18.309      19.503      20.123      20.124      19.504      18.309      16.630      14.604      12.425    
  10.314      8.3865      6.6998      5.2888      4.1630      3.3068      2.6864      2.2619      1.9986      1.8727    
  1.8728      1.9986      2.2619      2.6864      3.3069      4.1630      5.2887      6.6998      8.3866      10.314    
  12.425      14.604      16.731      17.525      17.955      18.090      17.955      17.525      16.731      15.512    
  13.877      11.964      10.021      8.2199      6.6270      5.2888      4.2233      3.4194      2.8462      2.4672    
  2.2522      2.1825      2.2522      2.4672      2.8462      3.4194      4.2233      5.2888      6.6270      8.2199    
  10.021      11.964      13.877      15.512      14.809      14.504      14.257      14.256      14.504      14.809    
  14.868      14.403      13.301      11.695      9.9169      8.2199      6.6997      5.4196      4.4055      3.6488    
  3.1213      2.7906      2.6316      2.6315      2.7905      3.1214      3.6489      4.4053      5.4195      6.6999    
  8.2200      9.9167      11.695      13.301      14.403      14.868      10.641      9.3806      8.8963      9.3806    
  10.641      12.172      13.356      13.709      13.080      11.695      10.021      8.3865      6.9143      5.6804    
  4.7130      4.0033      3.5249      3.2505      3.1613      3.2505      3.5249      4.0033      4.7130      5.6804    
  6.9143      8.3865      10.021      11.695      13.080      13.709      13.356      12.172      4.8231      3.1548    
  3.1550      4.8233      7.5918      10.545      12.774      13.709      13.301      11.963      10.314      8.7017    
  7.2616      6.0702      5.1514      4.4940      4.0739      3.8699      3.8700      4.0740      4.4938      5.1513    
  6.0704      7.2617      8.7015      10.314      11.964      13.301      13.709      12.774      10.546      7.5919    
 -1.2732     -2.5208     -1.2732      2.0632      6.4328      10.545      13.356      14.403      13.877      12.425    
  10.745      9.1370      7.7298      6.5883      5.7269      5.1326      4.7857      4.6717      4.7857      5.1326    
  5.7269      6.5883      7.7298      9.1370      10.745      12.425      13.877      14.403      13.356      10.545    
  6.4328      2.0632     -5.9128     -5.9130     -2.9394      2.0632      7.5920      12.172      14.868      15.512    
  14.604      12.975      11.256      9.6642      8.3083      7.2327      6.4429      5.9274      5.6732      5.6731    
  5.9273      6.4431      7.2329      8.3081      9.6641      11.256      12.975      14.604      15.512      14.868    
  12.172      7.5918      2.0630     -2.9391     -5.9128     -2.5205      3.1549      9.3806      14.504      17.525    
  18.309      17.427      15.771      14.004      12.350      10.916      9.7481      8.8624      8.2665      7.9665    
  7.9665      8.2665      8.8624      9.7481      10.916      12.350      14.004      15.771      17.427      18.309    
  17.525      14.504      9.3806      3.1549     -2.5207     -5.9129     -2.5206      2.1733      8.2734      13.997    
  17.993      19.735      19.514      18.125      16.396      14.691      13.145      11.826      10.762      9.9757    
  9.4906      9.3262      9.4906      9.9757      10.762      11.826      13.145      14.690      16.396      18.125    
  19.514      19.735      17.993      13.997      8.2733      2.1731     -2.5207     -4.2850      3.1550      8.2733    
  13.787      18.188      20.625      21.064      20.098      18.545      16.907      15.353      13.963      12.774    
  11.819      11.141      10.787      10.787      11.141      11.819      12.774      13.963      15.354      16.907    
  18.544      20.098      21.064      20.625      18.188      13.787      8.2734      3.1549     0.64664E-01 0.64736E-01
  9.3807      13.997      18.188      20.927      21.892      21.415      20.184      18.753      17.322      15.976    
  14.752      13.684      12.833      12.276      12.081      12.276      12.833      13.684      14.752      15.976    
  17.322      18.753      20.184      21.415      21.892      20.927      18.188      13.997      9.3807      5.7637    
  4.3929      5.7637      14.504      17.993      20.624      21.892      21.878      21.075      19.985      18.813    
  17.645      16.506      15.420      14.450      13.700      13.285      13.285      13.700      14.450      15.420    
  16.506      17.644      18.813      19.985      21.075      21.877      21.892      20.625      17.993      14.504    
  11.170      9.1265      9.1264      11.169      17.525      19.735      21.064      21.414      21.075      20.419    
  19.620      18.753      17.830      16.849      15.852      14.938      14.276      14.032      14.276      14.938    
  15.852      16.849      17.830      18.753      19.620      20.419      21.075      21.414      21.064      19.735    
  17.525      14.989      12.958      12.181      12.958      14.989      18.309      19.514      20.098      20.184    
  19.985      19.620      19.143      18.544      17.794      16.883      15.871      14.960      14.414      14.414    
  14.961      15.871      16.882      17.794      18.545      19.142      19.620      19.985      20.184      20.098    
  19.514      18.309      16.670      15.071      14.080      14.080      15.071      16.670      17.427      18.125    
  18.545      18.753      18.813      18.753      18.545      18.125      17.427      16.440      15.349      14.482    
  14.150      14.482      15.349      16.440      17.427      18.125      18.545      18.753      18.813      18.753    
  18.545      18.125      17.427      16.440      15.349      14.482      14.150      14.482      15.349      16.440    
  15.771      16.396      16.907      17.322      17.644      17.830      17.794      17.427      16.630      15.512    
  14.403      13.709      13.709      14.403      15.512      16.630      17.427      17.794      17.830      17.645    
  17.322      16.907      16.396      15.771      15.043      14.276      13.601      13.200      13.200      13.601    
  14.276      15.044      14.004      14.690      15.353      15.976      16.506      16.849      16.882      16.440    
  15.512      14.352      13.386      13.010      13.386      14.352      15.512      16.440      16.882      16.849    
  16.506      15.976      15.353      14.690      14.004      13.304      12.623      12.033      11.624      11.478    
  11.624      12.033      12.623      13.304      12.350      13.145      13.963      14.752      15.420      15.852    
  15.871      15.349      14.403      13.386      12.730      12.730      13.386      14.403      15.349      15.871    
  15.852      15.420      14.752      13.963      13.145      12.350      11.604      10.926      10.350      9.9225    
  9.6933      9.6934      9.9225      10.350      10.926      11.604      10.916      11.826      12.774      13.684    
  14.450      14.938      14.960      14.482      13.709      13.010      12.730      13.010      13.709      14.482    
  14.961      14.938      14.450      13.684      12.774      11.826      10.916      10.089      9.3679      8.7703    
  8.3171      8.0319      7.9344      8.0320      8.3171      8.7703      9.3679      10.089      9.7481      10.762    
  11.819      12.833      13.700      14.276      14.414      14.150      13.709      13.386      13.385      13.709    
  14.150      14.414      14.276      13.700      12.833      11.819      10.762      9.7480      8.8333      8.0475    
  7.4045      6.9122      6.5778      6.4084      6.4084      6.5778      6.9122      7.4045      8.0475      8.8333    
  8.8624      9.9758      11.141      12.276      13.285      14.032      14.414      14.482      14.403      14.352    
  14.403      14.482      14.414      14.032      13.285      12.276      11.141      9.9758      8.8624      7.8604    
  7.0032      6.3038      5.7639      5.3809      5.1522      5.0761      5.1521      5.3809      5.7639      6.3039    
  7.0032      7.8604      8.2666      9.4906      10.787      12.081      13.285      14.276      14.961      15.349    
  15.512      15.512      15.349      14.961      14.276      13.285      12.081      10.787      9.4906      8.2666    
  7.1714      6.2375      5.4760      4.8842      4.4528      4.1716      4.0330      4.0331      4.1716      4.4528    
  4.8842      5.4760      6.2375      7.1714      7.9665      9.3262      10.787      12.276      13.700      14.938    
  15.871      16.440      16.630      16.440      15.871      14.938      13.700      12.276      10.787      9.3262    
  7.9665      6.7608      5.7380      4.9060      4.2571      3.7762      3.4465      3.2545      3.1914      3.2545    
  3.4466      3.7762      4.2571      4.9059      5.7380      6.7608      7.9665      9.4906      11.141      12.833    
  14.450      15.852      16.882      17.427      17.427      16.882      15.852      14.450      12.833      11.141    
  9.4906      7.9665      6.6244      5.4919      4.5736      3.8573      3.3216      2.9432      2.7024      2.5855    
  2.5855      2.7024      2.9432      3.3215      3.8573      4.5736      5.4919      6.6243      8.2665      9.9758    
  11.819      13.684      15.420      16.849      17.794      18.125      17.794      16.849      15.420      13.684    
  11.819      9.9758      8.2666      6.7608      5.4919      4.4645      3.6631      3.0609      2.6281      2.3384    
  2.1723      2.1181      2.1722      2.3384      2.6281      3.0609      3.6631      4.4645      5.4919      6.7608    
  8.8624      10.762      12.774      14.752      16.506      17.830      18.545      18.545      17.830      16.506    
  14.752      12.774      10.762      8.8624      7.1714      5.7380      4.5736      3.6631      2.9761      2.4768    
  2.1321      1.9162      1.8123      1.8123      1.9162      2.1321      2.4768      2.9761      3.6631      4.5736    
  5.7380      7.1714      9.7481      11.826      13.963      15.976      17.644      18.753      19.143      18.753    
  17.644      15.976      13.963      11.826      9.7481      7.8604      6.2375      4.9060      3.8573      3.0609    
  2.4768      2.0653      1.7938      1.6395      1.5894      1.6395      1.7938      2.0653      2.4768      3.0609    
  3.8572      4.9059      6.2375      7.8604      10.916      13.145      15.353      17.322      18.813      19.620    
  19.620      18.813      17.322      15.353      13.145      10.916      8.8333      7.0032      5.4760      4.2571    
  3.3215      2.6281      2.1321      1.7938      1.5836      1.4828      1.4828      1.5836      1.7938      2.1321    
  2.6281      3.3215      4.2571      5.4760      7.0032      8.8333      12.350      14.691      16.907      18.753    
  19.985      20.418      19.985      18.753      16.907      14.691      12.350      10.089      8.0475      6.3038    
  4.8842      3.7762      2.9432      2.3384      1.9162      1.6395      1.4828      1.4321      1.4828      1.6394    
  1.9162      2.3384      2.9432      3.7762      4.8842      6.3038      8.0475      10.089      14.004      16.396    
  18.545      20.184      21.075      21.075      20.184      18.545      16.396      14.004      11.604      9.3680    
  7.4045      5.7639      4.4528      3.4465      2.7024      2.1723      1.8123      1.5894      1.4828      1.4828    
  1.5894      1.8123      2.1722      2.7024      3.4465      4.4528      5.7639      7.4045      9.3680      11.604    
  15.771      18.125      20.098      21.415      21.878      21.415      20.098      18.125      15.771      13.304    
  10.926      8.7703      6.9122      5.3809      4.1716      3.2545      2.5855      2.1181      1.8123      1.6395    
  1.5836      1.6395      1.8123      2.1181      2.5855      3.2545      4.1716      5.3809      6.9122      8.7703    
  10.926      13.304      17.427      19.514      21.064      21.892      21.892      21.064      19.514      17.427    
  15.043      12.623      10.350      8.3170      6.5778      5.1522      4.0330      3.1914      2.5855      2.1723    
  1.9162      1.7938      1.7938      1.9162      2.1722      2.5855      3.1914      4.0330      5.1521      6.5778    
  8.3171      10.350      12.623      15.043      18.309      19.735      20.625      20.927      20.625      19.735    
  18.309      16.440      14.276      12.033      9.9225      8.0319      6.4084      5.0761      4.0331      3.2544    
  2.7024      2.3384      2.1321      2.0653      2.1321      2.3384      2.7024      3.2544      4.0330      5.0761    
  6.4084      8.0319      9.9225      12.033      14.276      16.440      17.525      17.993      18.188      18.188    
  17.993      17.525      16.670      15.349      13.601      11.624      9.6934      7.9343      6.4083      5.1522    
  4.1717      3.4465      2.9432      2.6282      2.4768      2.4768      2.6281      2.9433      3.4466      4.1716    
  5.1521      6.4084      7.9344      9.6933      11.624      13.601      15.349      16.670      14.504      13.997    
  13.787      13.997      14.504      14.989      15.071      14.482      13.200      11.478      9.6935      8.0320    
  6.5777      5.3809      4.4529      3.7762      3.3215      3.0609      2.9762      3.0609      3.3215      3.7762    
  4.4529      5.3809      6.5777      8.0320      9.6934      11.478      13.200      14.482      15.071      14.989    
  9.3805      8.2732      8.2734      9.3807      11.169      12.958      14.080      14.150      13.200      11.624    
  9.9226      8.3171      6.9121      5.7638      4.8843      4.2572      3.8572      3.6630      3.6632      3.8573    
  4.2570      4.8842      5.7640      6.9122      8.3170      9.9224      11.624      13.200      14.150      14.080    
  12.958      11.170      3.1549      2.1730      3.1549      5.7638      9.1265      12.180      14.080      14.482    
  13.601      12.033      10.350      8.7704      7.4045      6.3037      5.4760      4.9060      4.5736      4.4644    
  4.5736      4.9060      5.4760      6.3037      7.4045      8.7704      10.350      12.033      13.601      14.482    
  14.080      12.180      9.1265      5.7638     -2.5206     -2.5207     0.64628E-01  4.3931      9.1265      12.958    
  15.071      15.349      14.276      12.623      10.926      9.3680      8.0476      7.0031      6.2374      5.7381    
  5.4919      5.4918      5.7379      6.2375      7.0033      8.0474      9.3679      10.926      12.623      14.276    
  15.349      15.071      12.958      9.1264      4.3929     0.64768E-01 -5.9128     -4.2850     0.64636E-01  5.7637    
  11.170      14.989      16.670      16.440      15.044      13.304      11.604      10.089      8.8333      7.8604    
  7.1714      6.7608      6.6244      6.7608      7.1714      7.8605      8.8333      10.089      11.604      13.304    
  15.044      16.440      16.670      14.989      11.170      5.7637     0.64627E-01 -4.2850     -1.2732      3.1549    
  8.8962      14.256      17.955      19.503      19.193      17.794      16.091      14.415      12.899      11.605    
  10.563      9.7935      9.3192      9.1587      9.3192      9.7935      10.563      11.605      12.899      14.415    
  16.091      17.794      19.193      19.503      17.955      14.256      8.8962      3.1549     -1.2732     -2.9393    
  3.1550      8.2733      13.787      18.188      20.625      21.064      20.098      18.545      16.907      15.353    
  13.963      12.774      11.819      11.141      10.787      10.787      11.141      11.819      12.774      13.963    
  15.354      16.907      18.544      20.098      21.064      20.625      18.188      13.787      8.2734      3.1549    
 0.64664E-01 0.64736E-01  8.8963      13.787      18.248      21.197      22.285      21.850      20.603      19.143    
  17.680      16.304      15.051      13.956      13.081      12.508      12.308      12.508      13.081      13.956    
  15.051      16.304      17.680      19.143      20.603      21.850      22.285      21.197      18.248      13.787    
  8.8963      5.0725      3.6246      5.0725      14.257      18.188      21.196      22.709      22.798      21.985    
  20.846      19.620      18.396      17.202      16.057      15.029      14.228      13.782      13.782      14.228    
  15.029      16.057      17.201      18.396      19.620      20.846      21.985      22.797      22.709      21.197    
  18.188      14.256      10.523      8.2423      8.2421      10.523      17.955      20.625      22.285      22.797    
  22.473      21.770      20.914      19.985      18.991      17.925      16.822      15.791      15.036      14.756    
  15.036      15.791      16.822      17.925      18.991      19.985      20.914      21.770      22.473      22.797    
  22.285      20.625      17.955      14.933      12.529      11.611      12.529      14.933      19.503      21.064    
  21.850      21.985      21.770      21.369      20.846      20.184      19.337      18.263      17.038      15.924    
  15.252      15.252      15.924      17.038      18.263      19.337      20.184      20.846      21.369      21.770    
  21.985      21.850      21.064      19.504      17.419      15.405      14.162      14.162      15.405      17.418    
  19.193      20.098      20.604      20.846      20.914      20.846      20.604      20.098      19.193      17.885    
  16.438      15.289      14.851      15.289      16.438      17.885      19.193      20.098      20.604      20.846    
  20.914      20.846      20.604      20.098      19.193      17.885      16.438      15.289      14.851      15.289    
  16.438      17.885      17.794      18.544      19.143      19.620      19.985      20.184      20.098      19.514    
  18.309      16.670      15.071      14.080      14.080      15.071      16.670      18.309      19.514      20.098    
  20.184      19.985      19.620      19.142      18.545      17.794      16.882      15.871      14.961      14.414    
  14.414      14.960      15.871      16.883      16.091      16.907      17.680      18.396      18.991      19.337    
  19.193      18.309      16.731      14.868      13.356      12.774      13.356      14.868      16.731      18.309    
  19.193      19.337      18.991      18.396      17.680      16.907      16.091      15.238      14.388      13.633    
  13.097      12.901      13.097      13.633      14.388      15.238      14.415      15.353      16.304      17.201    
  17.925      18.263      17.885      16.670      14.868      13.063      11.933      11.933      13.063      14.868    
  16.670      17.885      18.263      17.925      17.201      16.304      15.354      14.415      13.517      12.683    
  11.958      11.410      11.113      11.113      11.410      11.958      12.683      13.517      12.899      13.963    
  15.051      16.057      16.822      17.038      16.438      15.071      13.356      11.933      11.381      11.933    
  13.356      15.071      16.438      17.038      16.822      16.057      15.051      13.963      12.899      11.915    
  11.042      10.304      9.7330      9.3687      9.2431      9.3687      9.7330      10.304      11.042      11.915    
  11.605      12.774      13.956      15.029      15.791      15.924      15.289      14.080      12.774      11.933    
  11.933      12.774      14.080      15.289      15.924      15.791      15.029      13.956      12.774      11.605    
  10.530      9.5911      8.8108      8.2036      7.7855      7.5715      7.5715      7.7854      8.2037      8.8108    
  9.5910      10.530      10.563      11.819      13.081      14.228      15.036      15.252      14.851      14.080    
  13.356      13.063      13.356      14.080      14.851      15.252      15.036      14.228      13.081      11.819    