unknown system                          
   1.00000000000000     
     0.000000    2.715000    2.715000
     2.715000    0.000000    2.715000
     2.715000    2.715000    0.000000
   Si
     2
Direct
  0.000000  0.000000  0.000000
  0.250000  0.250000  0.250000
 
   32   32   32
 -.76472124495E+01 -.59128652081E+01 -.12732732764E+01 0.48231830466E+01 0.10640989676E+02
 0.14808818393E+02 0.16731367488E+02 0.16629927566E+02 0.15270687780E+02 0.13519869453E+02
 0.11799090077E+02 0.10262421152E+02 0.89863690338E+01 0.79968297149E+01 0.72955062167E+01
 0.68774564176E+01 0.67385824047E+01 0.68774564153E+01 0.72955062140E+01 0.79968297144E+01
 0.89863690365E+01 0.10262421157E+02 0.11799090080E+02 0.13519869450E+02 0.15270687770E+02
 0.16629927549E+02 0.16731367470E+02 0.14808818378E+02 0.10640989667E+02 0.48231830451E+01
 -.12732732737E+01 -.59128652053E+01 -.59128430839E+01 -.25205397435E+01 0.31548934017E+01
 0.93805598542E+01 0.14503990574E+02 0.17525144292E+02 0.18309070211E+02 0.17426841819E+02
 0.15771076862E+02 0.14004118792E+02 0.12350320283E+02 0.10916177543E+02 0.97480827550E+01
 0.88624266575E+01 0.82665286633E+01 0.79665036967E+01 0.79665306224E+01 0.82665483830E+01
 0.88623890868E+01 0.97480646609E+01 0.10916224949E+02 0.12350338797E+02 0.14004057201E+02
 0.15771042519E+02 0.17426897953E+02 0.18309110640E+02 0.17525107139E+02 0.14503985750E+02
 0.93806349176E+01 0.31548999858E+01 -.25206734005E+01 -.59129355112E+01 -.12732000190E+01
 0.31549047509E+01 0.88962048812E+01 0.14256491266E+02 0.17955326487E+02 0.19503453255E+02
 0.19192713486E+02 0.17793819194E+02 0.16090783203E+02 0.14415032473E+02 0.12898723082E+02
 0.11604955619E+02 0.10562817410E+02 0.97935122113E+01 0.93192267036E+01 0.91586685515E+01
 0.93192267040E+01 0.97935122122E+01 0.10562817412E+02 0.11604955621E+02 0.12898723082E+02
 0.14415032471E+02 0.16090783197E+02 0.17793819185E+02 0.19192713477E+02 0.19503453248E+02
 0.17955326485E+02 0.14256491268E+02 0.88962048876E+01 0.31549047581E+01 -.12732000143E+01
 -.29392913662E+01 0.48232156942E+01 0.93805493308E+01 0.14256447843E+02 0.18089639633E+02
 0.20123540408E+02 0.20351923581E+02 0.19336726178E+02 0.17829844964E+02 0.16253405285E+02
 0.14761098326E+02 0.13427844832E+02 0.12289838689E+02 0.11378328827E+02 0.10733590809E+02
 0.10397719130E+02 0.10397795293E+02 0.10733671701E+02 0.11378260255E+02 0.12289758498E+02
 0.13427908650E+02 0.14761177799E+02 0.16253348184E+02 0.17829774025E+02 0.19336788308E+02
 0.20351993814E+02 0.20123466303E+02 0.18089541249E+02 0.14256490636E+02 0.93806454455E+01
 0.48232185901E+01 0.20630847732E+01 0.20631139471E+01 0.10640986635E+02 0.14503968450E+02
 0.17955256271E+02 0.20123507760E+02 0.20756228538E+02 0.20173280420E+02 0.18990583662E+02
 0.17644510413E+02 0.16301062969E+02 0.15040079847E+02 0.13897723037E+02 0.12907383624E+02
 0.12122415786E+02 0.11611321354E+02 0.11433169943E+02 0.11611321357E+02 0.12122415791E+02
 0.12907383627E+02 0.13897723036E+02 0.15040079844E+02 0.16301062964E+02 0.17644510409E+02
 0.18990583661E+02 0.20173280423E+02 0.20756228544E+02 0.20123507765E+02 0.17955256274E+02
 0.14503968450E+02 0.10640986634E+02 0.75918775224E+01 0.64327717126E+01 0.75918775237E+01
 0.14808875812E+02 0.17525179586E+02 0.19503406612E+02 0.20351898810E+02 0.20173337838E+02
 0.19399362768E+02 0.18396361837E+02 0.17322047851E+02 0.16253430056E+02 0.15218696187E+02
 0.14242093834E+02 0.13378633566E+02 0.12717757596E+02 0.12355818519E+02 0.12355698255E+02
 0.12717634490E+02 0.13378748688E+02 0.14242214829E+02 0.15218582109E+02 0.16253309111E+02
 0.17322159152E+02 0.18396479683E+02 0.19399250859E+02 0.20173222936E+02 0.20352018589E+02
 0.19503534770E+02 0.17525071854E+02 0.14808745141E+02 0.12172308332E+02 0.10545507180E+02
 0.10545408237E+02 0.12172224235E+02 0.16731440746E+02 0.18309172740E+02 0.19192713486E+02
 0.19336678420E+02 0.18990653878E+02 0.18396499661E+02 0.17680220869E+02 0.16906682040E+02
 0.16090783203E+02 0.15237774966E+02 0.14387798882E+02 0.13632631772E+02 0.13096730098E+02
 0.12901184371E+02 0.13096730101E+02 0.13632631776E+02 0.14387798884E+02 0.15237774964E+02
 0.16090783198E+02 0.16906682033E+02 0.17680220863E+02 0.18396499658E+02 0.18990653878E+02
 0.19336678420E+02 0.19192713484E+02 0.18309172734E+02 0.16731440736E+02 0.14868068089E+02
 0.13355820835E+02 0.12773929530E+02 0.13355820841E+02 0.14868068098E+02 0.16629877144E+02
 0.17426914365E+02 0.17793858841E+02 0.17829761895E+02 0.17644459991E+02 0.17322155691E+02
 0.16906812868E+02 0.16395958481E+02 0.15771004316E+02 0.15043534766E+02 0.14275854628E+02
 0.13601208442E+02 0.13200015735E+02 0.13200118441E+02 0.13601312877E+02 0.14275755506E+02
 0.15043433014E+02 0.15771104633E+02 0.16396061438E+02 0.16906713905E+02 0.17322051311E+02
 0.17644552230E+02 0.17829857095E+02 0.17793762608E+02 0.17426825414E+02 0.16629985798E+02
 0.15512118841E+02 0.14402683625E+02 0.13708867965E+02 0.13708974487E+02 0.14402795240E+02
 0.15512021844E+02 0.15270556227E+02 0.15771054738E+02 0.16090841498E+02 0.16253372637E+02
 0.16300934457E+02 0.16253372637E+02 0.16090841498E+02 0.15771054738E+02 0.15270556227E+02
 0.14603797066E+02 0.13877218760E+02 0.13300634179E+02 0.13080014358E+02 0.13300634178E+02
 0.13877218758E+02 0.14603797064E+02 0.15270556224E+02 0.15771054733E+02 0.16090841493E+02
 0.16253372632E+02 0.16300934451E+02 0.16253372632E+02 0.16090841493E+02 0.15771054733E+02
 0.15270556224E+02 0.14603797064E+02 0.13877218758E+02 0.13300634178E+02 0.13080014358E+02
 0.13300634179E+02 0.13877218760E+02 0.14603797066E+02 0.13519837422E+02 0.14004064637E+02
 0.14415075279E+02 0.14761163005E+02 0.15040047816E+02 0.15218606737E+02 0.15237726592E+02
 0.15043516375E+02 0.14603765035E+02 0.13962505613E+02 0.13309204296E+02 0.12894677935E+02
 0.12894613625E+02 0.13309139025E+02 0.13962567554E+02 0.14603827433E+02 0.15043451403E+02
 0.15237661371E+02 0.15218671559E+02 0.15040120003E+02 0.14761113119E+02 0.14415016823E+02
 0.14004111356E+02 0.13519869705E+02 0.12974805457E+02 0.12424899688E+02 0.11963490905E+02
 0.11695083389E+02 0.11694997449E+02 0.11963383528E+02 0.12424941148E+02 0.12974884747E+02
 0.11799163334E+02 0.12350307629E+02 0.12898723082E+02 0.13427912258E+02 0.13897793253E+02
 0.14242116474E+02 0.14387798882E+02 0.14275838985E+02 0.13877160464E+02 0.13309137486E+02
 0.12809524971E+02 0.12610951873E+02 0.12809524967E+02 0.13309137480E+02 0.13877160458E+02
 0.14275838980E+02 0.14387798880E+02 0.14242116474E+02 0.13897793253E+02 0.13427912258E+02
 0.12898723081E+02 0.12350307628E+02 0.11799163336E+02 0.11255984754E+02 0.10745364000E+02
 0.10313946248E+02 0.10021041745E+02 0.99168521613E+01 0.10021041739E+02 0.10313946239E+02
 0.10745363992E+02 0.11255984748E+02 0.10262440490E+02 0.10916180330E+02 0.11604925507E+02
 0.12289825379E+02 0.12907402961E+02 0.13378671646E+02 0.13632692840E+02 0.13601278202E+02
 0.13300653516E+02 0.12894626566E+02 0.12610897757E+02 0.12610936008E+02 0.12894664988E+02
 0.13300616438E+02 0.13601243109E+02 0.13632735151E+02 0.13378710603E+02 0.12907357313E+02
 0.12289771809E+02 0.11604949951E+02 0.10916222161E+02 0.10262431223E+02 0.96641804062E+01
 0.91369368739E+01 0.87016172674E+01 0.83864617774E+01 0.82199512431E+01 0.82200180364E+01
 0.83865581699E+01 0.87016142316E+01 0.91368868021E+01 0.96641805024E+01 0.89863178614E+01
 0.97480606308E+01 0.10562795325E+02 0.11378296179E+02 0.12122367654E+02 0.12717700178E+02
 0.13096708013E+02 0.13200066157E+02 0.13080094738E+02 0.12894645656E+02 0.12809502882E+02
 0.12894645650E+02 0.13080094728E+02 0.13200066147E+02 0.13096708006E+02 0.12717700174E+02
 0.12122367655E+02 0.11378296181E+02 0.10562795327E+02 0.97480606316E+01 0.89863178616E+01
 0.83081914550E+01 0.77297831635E+01 0.72616464384E+01 0.69144686622E+01 0.66997706759E+01
 0.66269791807E+01 0.66997706734E+01 0.69144686583E+01 0.72616464348E+01 0.77297831613E+01
 0.83081914544E+01 0.79968419878E+01 0.88624168061E+01 0.97935107135E+01 0.10733611184E+02
 0.11611333627E+02 0.12355773374E+02 0.12901091693E+02 0.13200055746E+02 0.13300646451E+02
 0.13309183329E+02 0.13309159985E+02 0.13300623503E+02 0.13200078420E+02 0.12901110007E+02
 0.12355743391E+02 0.11611312633E+02 0.10733651323E+02 0.97935546149E+01 0.88623989390E+01
 0.79967994814E+01 0.72327862059E+01 0.65883748413E+01 0.60702967012E+01 0.56804333974E+01
 0.54196055022E+01 0.52887627336E+01 0.52887144561E+01 0.54195287854E+01 0.56804173146E+01
 0.60703189941E+01 0.65883812243E+01 0.72327985039E+01 0.72955794741E+01 0.82665625828E+01
 0.93192267036E+01 0.10397739982E+02 0.11433240160E+02 0.12355767468E+02 0.13096730101E+02
 0.13601250660E+02 0.13877160463E+02 0.13962547318E+02 0.13877160458E+02 0.13601250651E+02
 0.13096730091E+02 0.12355767459E+02 0.11433240154E+02 0.10397739979E+02 0.93192267027E+01
 0.82665625825E+01 0.72955794728E+01 0.64430043100E+01 0.57268663658E+01 0.51513238710E+01
 0.47128550105E+01 0.44053750152E+01 0.42233232305E+01 0.41630558099E+01 0.42233232333E+01
 0.44053750202E+01 0.47128550168E+01 0.51513238773E+01 0.57268663709E+01 0.64430043132E+01
 0.68774528423E+01 0.79665293962E+01 0.91586613518E+01 0.10397759070E+02 0.11611317782E+02
 0.12717695483E+02 0.13632715757E+02 0.14275802352E+02 0.14603793489E+02 0.14603798977E+02
 0.14275807777E+02 0.13632712239E+02 0.12717696599E+02 0.11611328481E+02 0.10397755349E+02
 0.91586313540E+01 0.79665049234E+01 0.68774670972E+01 0.59273784707E+01 0.51325174720E+01
 0.44938923762E+01 0.40032588278E+01 0.36488252795E+01 0.34194202990E+01 0.33068497250E+01
 0.33068696575E+01 0.34194605839E+01 0.36488554356E+01 0.40032706180E+01 0.44938864076E+01
 0.51324885156E+01 0.59273388892E+01 0.67385111032E+01 0.79665084981E+01 0.93192247480E+01
 0.10733639053E+02 0.12122347530E+02 0.13378691270E+02 0.14387796928E+02 0.15043483436E+02
 0.15270616475E+02 0.15043483434E+02 0.14387796924E+02 0.13378691265E+02 0.12122347526E+02
 0.10733639050E+02 0.93192247468E+01 0.79665084987E+01 0.67385111050E+01 0.56731248945E+01
 0.47856681486E+01 0.40739886039E+01 0.35250305965E+01 0.31213433188E+01 0.28461523735E+01
 0.26863988163E+01 0.26340437499E+01 0.26863988187E+01 0.28461523774E+01 0.31213433229E+01
 0.35250305995E+01 0.40739886049E+01 0.47856681478E+01 0.56731248926E+01 0.68774617005E+01
 0.82665315439E+01 0.97935177021E+01 0.11378287618E+02 0.12907388912E+02 0.14242162695E+02
 0.15237689274E+02 0.15771048925E+02 0.15771060018E+02 0.15237698687E+02 0.14242145967E+02
 0.12907371365E+02 0.11378301467E+02 0.97935476271E+01 0.82665455021E+01 0.68774582368E+01
 0.56731301796E+01 0.46717557639E+01 0.38699201946E+01 0.32505428524E+01 0.27905524545E+01
 0.24671626366E+01 0.22619043780E+01 0.21623523341E+01 0.21623610114E+01 0.22619031833E+01
 0.24671247626E+01 0.27905119684E+01 0.32505460953E+01 0.38699563704E+01 0.46717849343E+01
 0.56731427455E+01 0.72955794714E+01 0.88624209362E+01 0.10562817412E+02 0.12289781421E+02
 0.13897793253E+02 0.15218649253E+02 0.16090783198E+02 0.16396001291E+02 0.16090783198E+02
 0.15218649253E+02 0.13897793253E+02 0.12289781421E+02 0.10562817412E+02 0.88624209370E+01
 0.72955794728E+01 0.59273651703E+01 0.47856701045E+01 0.38699352048E+01 0.31611689361E+01
 0.26315283447E+01 0.22521834397E+01 0.19986275726E+01 0.18532701179E+01 0.18059147705E+01
 0.18532701163E+01 0.19986275696E+01 0.22521834357E+01 0.26315283401E+01 0.31611689315E+01
 0.38699352008E+01 0.47856701013E+01 0.59273651681E+01 0.79968241191E+01 0.97480923805E+01
 0.11604950441E+02 0.13427870407E+02 0.15040074248E+02 0.16253372125E+02 0.16906768034E+02
 0.16906758731E+02 0.16253367036E+02 0.15040093567E+02 0.13427883075E+02 0.11604925019E+02
 0.97480550363E+01 0.79968173495E+01 0.64430217006E+01 0.51325154519E+01 0.40739830086E+01
 0.32505537328E+01 0.26315436651E+01 0.21825631935E+01 0.18727417368E+01 0.16785959598E+01
 0.15850806381E+01 0.15850656957E+01 0.16785825393E+01 0.18727671710E+01 0.21826039032E+01
 0.26315549280E+01 0.32505352143E+01 0.40739589482E+01 0.51324905326E+01 0.64430002692E+01
 0.89862928532E+01 0.10916202825E+02 0.12898726008E+02 0.14761145151E+02 0.16300989821E+02
 0.17322101734E+02 0.17680223789E+02 0.17322101733E+02 0.16300989821E+02 0.14761145150E+02
 0.12898726007E+02 0.10916202823E+02 0.89862928507E+01 0.72327739331E+01 0.57268692917E+01
 0.44938959515E+01 0.35250257147E+01 0.27905471694E+01 0.22521863656E+01 0.18727473321E+01
 0.16220814825E+01 0.14794124583E+01 0.14330862478E+01 0.14794124559E+01 0.16220814787E+01
 0.18727473283E+01 0.22521863632E+01 0.27905471691E+01 0.35250257165E+01 0.44938959547E+01
 0.57268692954E+01 0.72327739364E+01 0.10262422971E+02 0.12350318487E+02 0.14415041432E+02
 0.16253379018E+02 0.17644512224E+02 0.18396424079E+02 0.18396417438E+02 0.17644499994E+02
 0.16253374446E+02 0.14415050668E+02 0.12350340592E+02 0.10262448746E+02 0.83081932694E+01
 0.65883643828E+01 0.51513102614E+01 0.40032534382E+01 0.31213451332E+01 0.24671591658E+01
 0.19986160331E+01 0.16785885501E+01 0.14794142726E+01 0.13838256839E+01 0.13838245381E+01
 0.14794151678E+01 0.16785899513E+01 0.19986021088E+01 0.24671282351E+01 0.31213275954E+01
 0.40032760060E+01 0.51513558986E+01 0.65883916846E+01 0.83081855038E+01 0.11799163337E+02
 0.14004084061E+02 0.16090783197E+02 0.17829801936E+02 0.18990653877E+02 0.19399313013E+02
 0.18990653878E+02 0.17829801937E+02 0.16090783198E+02 0.14004084061E+02 0.11799163336E+02
 0.96641950079E+01 0.77298052485E+01 0.60703137098E+01 0.47128550105E+01 0.36488169684E+01
 0.28461543294E+01 0.22619143989E+01 0.18532701179E+01 0.15850703070E+01 0.14330833219E+01
 0.13838310882E+01 0.14330833223E+01 0.15850703080E+01 0.18532701199E+01 0.22619144021E+01
 0.28461543336E+01 0.36488169731E+01 0.47128550152E+01 0.60703137138E+01 0.77298052513E+01
 0.96641950095E+01 0.13519869591E+02 0.15771064502E+02 0.17793808269E+02 0.19336755802E+02
 0.20173280564E+02 0.20173280213E+02 0.19336758684E+02 0.17793813171E+02 0.15771054875E+02
 0.13519837533E+02 0.11255949835E+02 0.91369176776E+01 0.72616465796E+01 0.56804455291E+01
 0.44053866692E+01 0.34194240154E+01 0.26863989574E+01 0.21623574781E+01 0.18059243545E+01
 0.15850714322E+01 0.14794125970E+01 0.14794168409E+01 0.15850749027E+01 0.18059181436E+01
 0.21623558708E+01 0.26864211176E+01 0.34194568650E+01 0.44053905329E+01 0.56804051822E+01
 0.72615975139E+01 0.91369060048E+01 0.11255978300E+02 0.15270629098E+02 0.17426875829E+02
 0.19192698892E+02 0.20351961167E+02 0.20756172913E+02 0.20351961171E+02 0.19192698898E+02
 0.17426875836E+02 0.15270629105E+02 0.12974837488E+02 0.10745349415E+02 0.87015979298E+01
 0.69144611629E+01 0.54195932294E+01 0.42233086448E+01 0.33068533003E+01 0.26340563797E+01
 0.21623557263E+01 0.18532555306E+01 0.16785881346E+01 0.16220989903E+01 0.16785881369E+01
 0.18532555342E+01 0.21623557296E+01 0.26340563814E+01 0.33068533000E+01 0.42233086429E+01
 0.54195932267E+01 0.69144611602E+01 0.87015979270E+01 0.10745349411E+02 0.12974837483E+02
 0.16629954575E+02 0.18309115541E+02 0.19503436997E+02 0.20123471925E+02 0.20123534791E+02
 0.19503504377E+02 0.18309065303E+02 0.16629908351E+02 0.14603824090E+02 0.12424958745E+02
 0.10313954000E+02 0.83864540892E+01 0.66997977016E+01 0.52887774864E+01 0.41630169890E+01
 0.33068390565E+01 0.26864258443E+01 0.22619249239E+01 0.19985908188E+01 0.18727345500E+01
 0.18727743540E+01 0.19986273201E+01 0.22618826406E+01 0.26863942331E+01 0.33068803257E+01
 0.41630243391E+01 0.52886996980E+01 0.66997786314E+01 0.83865658617E+01 0.10314029448E+02
 0.12424882092E+02 0.14603743065E+02 0.16731440727E+02 0.17525197211E+02 0.17955326485E+02
 0.18089505949E+02 0.17955326490E+02 0.17525197220E+02 0.16731440736E+02 0.15512000471E+02
 0.13877160463E+02 0.11963526822E+02 0.10021041745E+02 0.82199026332E+01 0.66270012657E+01
 0.52887946763E+01 0.42233232333E+01 0.34193890612E+01 0.28461543334E+01 0.24671979951E+01
 0.22521834357E+01 0.21825303605E+01 0.22521834372E+01 0.24671979968E+01 0.28461543336E+01
 0.34193890588E+01 0.42233232286E+01 0.52887946710E+01 0.66270012617E+01 0.82199026317E+01
 0.10021041745E+02 0.11963526822E+02 0.13877160460E+02 0.15512000465E+02 0.14808748969E+02
 0.14504077283E+02 0.14256549903E+02 0.14256388579E+02 0.14503899041E+02 0.14808871969E+02
 0.14868217904E+02 0.14402664638E+02 0.13300564769E+02 0.11695120767E+02 0.99168867922E+01
 0.82199292897E+01 0.66997012641E+01 0.54196104674E+01 0.44054562247E+01 0.36487896016E+01
 0.31212739137E+01 0.27905866627E+01 0.26316074745E+01 0.26314911140E+01 0.27904777599E+01
 0.31213988190E+01 0.36488911181E+01 0.44053209825E+01 0.54195238175E+01 0.66998750663E+01
 0.82200399883E+01 0.99166927725E+01 0.11694960076E+02 0.13300717892E+02 0.14402814219E+02
 0.14868077328E+02 0.10640794300E+02 0.93806127933E+01 0.88963269979E+01 0.93806127979E+01
 0.10640794307E+02 0.12172250914E+02 0.13355942945E+02 0.13708918387E+02 0.13079950543E+02
 0.11695029480E+02 0.10021163850E+02 0.83865388324E+01 0.69143244631E+01 0.56804050418E+01
 0.47129771271E+01 0.40032741933E+01 0.35249065333E+01 0.32505408102E+01 0.31612910418E+01
 0.32505408096E+01 0.35249065322E+01 0.40032741916E+01 0.47129771254E+01 0.56804050411E+01
 0.69143244643E+01 0.83865388360E+01 0.10021163855E+02 0.11695029485E+02 0.13079950546E+02
 0.13708918386E+02 0.13355942941E+02 0.12172250907E+02 0.48230885202E+01 0.31547833367E+01
 0.31550100581E+01 0.48233457626E+01 0.75917829975E+01 0.10545355236E+02 0.12773943649E+02
 0.13709018590E+02 0.13300539654E+02 0.11963321034E+02 0.10314075543E+02 0.87017280940E+01
 0.72615519099E+01 0.60702121963E+01 0.51514066070E+01 0.44939773572E+01 0.40738940800E+01
 0.38698565604E+01 0.38700200006E+01 0.40740478778E+01 0.44938014298E+01 0.51512595594E+01
 0.60704035028E+01 0.72616921800E+01 0.87015034021E+01 0.10313907898E+02 0.11963553399E+02
 0.13300743008E+02 0.13708823861E+02 0.12773765942E+02 0.10545560171E+02 0.75919441529E+01
 -.12732000163E+01 -.25207803318E+01 -.12732000143E+01 0.20632464764E+01 0.64328419292E+01
 0.10545336600E+02 0.13355820841E+02 0.14402873873E+02 0.13877160464E+02 0.12424780061E+02
 0.10745363992E+02 0.91370351952E+01 0.77298052463E+01 0.65882644416E+01 0.57268663709E+01
 0.51326139959E+01 0.47856701037E+01 0.46716611639E+01 0.47856701013E+01 0.51326139928E+01
 0.57268663695E+01 0.65882644434E+01 0.77298052513E+01 0.91370352015E+01 0.10745363997E+02
 0.12424780062E+02 0.13877160460E+02 0.14402873865E+02 0.13355820831E+02 0.10545336591E+02
 0.64328419220E+01 0.20632464720E+01 -.59127889452E+01 -.59129896469E+01 -.29393784013E+01
 0.20631575595E+01 0.75919537838E+01 0.12172205393E+02 0.14868072244E+02 0.15512148526E+02
 0.14603873326E+02 0.12974776456E+02 0.11255873710E+02 0.96642374249E+01 0.83082677144E+01
 0.72327345167E+01 0.64429398484E+01 0.59274187246E+01 0.56732011526E+01 0.56730717706E+01
 0.59272986332E+01 0.64430821245E+01 0.72328501964E+01 0.83081110581E+01 0.96641234852E+01
 0.11256054419E+02 0.12974913743E+02 0.14603693831E+02 0.15511992152E+02 0.14868222998E+02
 0.12172327167E+02 0.75917733680E+01 0.20630411564E+01 -.29391375566E+01 -.59128430839E+01
 -.25205397435E+01 0.31548934017E+01 0.93805598542E+01 0.14503990574E+02 0.17525144292E+02
 0.18309070211E+02 0.17426841819E+02 0.15771076862E+02 0.14004118792E+02 0.12350320283E+02
 0.10916177543E+02 0.97480827550E+01 0.88624266575E+01 0.82665286633E+01 0.79665036967E+01
 0.79665306224E+01 0.82665483830E+01 0.88623890868E+01 0.97480646609E+01 0.10916224949E+02
 0.12350338797E+02 0.14004057201E+02 0.15771042519E+02 0.17426897953E+02 0.18309110640E+02
 0.17525107139E+02 0.14503985750E+02 0.93806349176E+01 0.31548999858E+01 -.25206734005E+01
 -.59129355112E+01 -.25205594030E+01 0.21732588743E+01 0.82733732739E+01 0.13997092622E+02
 0.17992726755E+02 0.19734640103E+02 0.19513809663E+02 0.18124909134E+02 0.16396004143E+02
 0.14690502594E+02 0.13145426987E+02 0.11825910132E+02 0.10761976706E+02 0.99757377492E+01
 0.94905553321E+01 0.93262225198E+01 0.94905646621E+01 0.99757397467E+01 0.10761968322E+02
 0.11825905957E+02 0.13145430269E+02 0.14690497715E+02 0.16395985022E+02 0.18124895109E+02
 0.19513825312E+02 0.19734690063E+02 0.17992787834E+02 0.13997118917E+02 0.82733230779E+01
 0.21731437691E+01 -.25206588576E+01 -.42849669615E+01 0.31549503476E+01 0.82733452485E+01
 0.13787227100E+02 0.18187947945E+02 0.20624580336E+02 0.21064314670E+02 0.20097746355E+02
 0.18544576962E+02 0.16906790042E+02 0.15353448290E+02 0.13963395149E+02 0.12774132313E+02
 0.11818760666E+02 0.11141065142E+02 0.10787306105E+02 0.10787387373E+02 0.11141155187E+02
 0.11818695003E+02 0.12774047338E+02 0.13963453621E+02 0.15353525374E+02 0.16906727999E+02
 0.18544494922E+02 0.20097802646E+02 0.21064404485E+02 0.20624554168E+02 0.18187894031E+02
 0.13787263782E+02 0.82733695828E+01 0.31548597267E+01 0.64663923878E-01 0.64736056509E-01
 0.93806543157E+01 0.13997085414E+02 0.18187846330E+02 0.20926981291E+02 0.21891826244E+02
 0.21414534734E+02 0.20183630908E+02 0.18753239596E+02 0.17322177606E+02 0.15976121369E+02
 0.14751793717E+02 0.13684192602E+02 0.12832787887E+02 0.12275758963E+02 0.12081108674E+02
 0.12275790011E+02 0.12832810293E+02 0.13684189812E+02 0.14751786504E+02 0.15976119749E+02
 0.17322169727E+02 0.18753231060E+02 0.20183643248E+02 0.21414557702E+02 0.21891821374E+02
 0.20926943980E+02 0.18187819751E+02 0.13997100353E+02 0.93806928886E+01 0.57637371060E+01
 0.43929105795E+01 0.57637093664E+01 0.14504032166E+02 0.17992786949E+02 0.20624485411E+02
 0.21891694861E+02 0.21877553820E+02 0.21074803900E+02 0.19984942645E+02 0.18813217572E+02
 0.17644574129E+02 0.16505837464E+02 0.15420312913E+02 0.14450064954E+02 0.13700191383E+02
 0.13285410583E+02 0.13285299121E+02 0.13700096436E+02 0.14450215324E+02 0.15420444373E+02
 0.16505699500E+02 0.17644427944E+02 0.18813330525E+02 0.19985074927E+02 0.21074696076E+02
 0.21877436394E+02 0.21891812905E+02 0.20624602220E+02 0.17992660720E+02 0.14503904886E+02
 0.11169577482E+02 0.91265237493E+01 0.91264044563E+01 0.11169461362E+02 0.17525130101E+02
 0.19734743982E+02 0.21064342741E+02 0.21414443576E+02 0.21074749175E+02 0.20418526132E+02
 0.19619727632E+02 0.18753137410E+02 0.17829813025E+02 0.16848807478E+02 0.15851713425E+02
 0.14938211789E+02 0.14276162012E+02 0.14032394804E+02 0.14276180304E+02 0.14938247368E+02
 0.15851741719E+02 0.16848800610E+02 0.17829783665E+02 0.18753122726E+02 0.19619733098E+02
 0.20418527929E+02 0.21074746562E+02 0.21414459264E+02 0.21064371029E+02 0.19734748322E+02
 0.17525098841E+02 0.14988780511E+02 0.12957785663E+02 0.12180616169E+02 0.12957805318E+02
 0.14988818555E+02 0.18309038434E+02 0.19513882816E+02 0.20097841305E+02 0.20183637573E+02
 0.19984948847E+02 0.19619800739E+02 0.19142617326E+02 0.18544482012E+02 0.17793747293E+02
 0.16882533956E+02 0.15871024704E+02 0.14960461418E+02 0.14413743358E+02 0.14413885239E+02
 0.14960624161E+02 0.15870931017E+02 0.16882415701E+02 0.17793858552E+02 0.18544589872E+02
 0.19142483406E+02 0.19619674884E+02 0.19985076541E+02 0.20183765358E+02 0.20097715451E+02
 0.19513751635E+02 0.18309158160E+02 0.16670011354E+02 0.15070976199E+02 0.14079710405E+02
 0.14079827980E+02 0.15071087796E+02 0.16669881374E+02 0.17426785927E+02 0.18124910199E+02
 0.18544631214E+02 0.18753236839E+02 0.18813198602E+02 0.18753236839E+02 0.18544631214E+02
 0.18124910199E+02 0.17426785927E+02 0.16439948519E+02 0.15348798628E+02 0.14481625362E+02
 0.14150062005E+02 0.14481645339E+02 0.15348825125E+02 0.16439965632E+02 0.17426787048E+02
 0.18124900576E+02 0.18544620824E+02 0.18753231316E+02 0.18813195908E+02 0.18753231316E+02
 0.18544620824E+02 0.18124900576E+02 0.17426787048E+02 0.16439965632E+02 0.15348825125E+02
 0.14481645339E+02 0.14150062005E+02 0.14481625362E+02 0.15348798628E+02 0.16439948519E+02
 0.15771004316E+02 0.16395958481E+02 0.16906812868E+02 0.17322155691E+02 0.17644459991E+02
 0.17829761895E+02 0.17793858841E+02 0.17426914365E+02 0.16629877144E+02 0.15512021844E+02
 0.14402795240E+02 0.13708974487E+02 0.13708867965E+02 0.14402683625E+02 0.15512118841E+02
 0.16629985798E+02 0.17426825414E+02 0.17793762608E+02 0.17829857095E+02 0.17644552230E+02
 0.17322051311E+02 0.16906713905E+02 0.16396061438E+02 0.15771104633E+02 0.15043433014E+02
 0.14275755506E+02 0.13601312877E+02 0.13200118441E+02 0.13200015735E+02 0.13601208442E+02
 0.14275854628E+02 0.15043534766E+02 0.14004099762E+02 0.14690455463E+02 0.15353482333E+02
 0.15976182355E+02 0.16505777900E+02 0.16848656469E+02 0.16882466822E+02 0.16440001233E+02
 0.15512068135E+02 0.14351902455E+02 0.13385582754E+02 0.13009750667E+02 0.13385540207E+02
 0.14351855416E+02 0.15512053943E+02 0.16440021520E+02 0.16882492869E+02 0.16848664736E+02
 0.16505772958E+02 0.15976183318E+02 0.15353494242E+02 0.14690462893E+02 0.14004088861E+02
 0.13303918259E+02 0.12623323382E+02 0.12032673931E+02 0.11624407885E+02 0.11477764626E+02
 0.11624394009E+02 0.12032665252E+02 0.12623334112E+02 0.13303939675E+02 0.12350381539E+02
 0.13145399826E+02 0.13963395870E+02 0.14751899500E+02 0.15420412148E+02 0.15851686217E+02
 0.15870930475E+02 0.15348748543E+02 0.14402776724E+02 0.13385549574E+02 0.12729639308E+02
 0.12729674332E+02 0.13385547886E+02 0.14402660574E+02 0.15348684521E+02 0.15871034237E+02
 0.15851781858E+02 0.15420347957E+02 0.14751824993E+02 0.13963461245E+02 0.13145467758E+02
 0.12350311376E+02 0.11603586147E+02 0.10925778936E+02 0.10349609307E+02 0.99224613056E+01
 0.96933366779E+01 0.96934079280E+01 0.99225338670E+01 0.10349540911E+02 0.10925708722E+02
 0.11603655339E+02 0.10916237075E+02 0.11825906986E+02 0.12774068335E+02 0.13684191248E+02
 0.14450161408E+02 0.14938307007E+02 0.14960492389E+02 0.14481626766E+02 0.13708961472E+02
 0.13009693743E+02 0.12729606186E+02 0.13009638947E+02 0.13708892493E+02 0.14481595411E+02
 0.14960516345E+02 0.14938352727E+02 0.14450182658E+02 0.13684178095E+02 0.12774045167E+02
 0.11825895577E+02 0.10916242972E+02 0.10089129969E+02 0.93679267953E+01 0.87702916624E+01
 0.83170704835E+01 0.80319233776E+01 0.79343609476E+01 0.80319615537E+01 0.83171020170E+01
 0.87702864223E+01 0.93678990574E+01 0.10089107449E+02 0.97480762932E+01 0.10761995385E+02
 0.11818713946E+02 0.12832698170E+02 0.13700143330E+02 0.14276175223E+02 0.14413785360E+02
 0.14150122640E+02 0.13708934049E+02 0.13385558257E+02 0.13385496855E+02 0.13708837705E+02
 0.14150103646E+02 0.14413809122E+02 0.14276169647E+02 0.13700143284E+02 0.12832745019E+02
 0.11818742308E+02 0.10761955784E+02 0.97480446691E+01 0.88332945439E+01 0.80475155745E+01
 0.74045011042E+01 0.69121734260E+01 0.65778209762E+01 0.64083876881E+01 0.64083511569E+01
 0.65777830733E+01 0.69122084096E+01 0.74045409745E+01 0.80474851052E+01 0.88332577254E+01
 0.88624058631E+01 0.99757612397E+01 0.11141097690E+02 0.12275746067E+02 0.13285349255E+02
 0.14032314415E+02 0.14413816609E+02 0.14481624171E+02 0.14402728152E+02 0.14351926037E+02
 0.14402692258E+02 0.14481578455E+02 0.14413789308E+02 0.14032313869E+02 0.13285365163E+02
 0.12275767005E+02 0.11141120394E+02 0.99757822090E+01 0.88624125445E+01 0.78604061656E+01
 0.70031784632E+01 0.63038228050E+01 0.57639174758E+01 0.53809194380E+01 0.51521591083E+01
 0.50760532121E+01 0.51521216025E+01 0.53808784728E+01 0.57639086035E+01 0.63038508884E+01
 0.70032171149E+01 0.78604259357E+01 0.82665518988E+01 0.94905621236E+01 0.10787342331E+02
 0.12081177989E+02 0.13285360335E+02 0.14276187050E+02 0.14960565437E+02 0.15348738572E+02
 0.15512062304E+02 0.15512054716E+02 0.15348720027E+02 0.14960548023E+02 0.14276182657E+02
 0.13285367432E+02 0.12081184220E+02 0.10787343199E+02 0.94905650349E+01 0.82665584680E+01
 0.71714269807E+01 0.62374758609E+01 0.54759955485E+01 0.48841983388E+01 0.44527732167E+01
 0.41716187870E+01 0.40330480279E+01 0.40330533021E+01 0.41716249204E+01 0.44527690592E+01
 0.48841916660E+01 0.54759984876E+01 0.62374831302E+01 0.71714263285E+01 0.79665308935E+01
 0.93262169996E+01 0.10787354147E+02 0.12275789448E+02 0.13700160554E+02 0.14938340212E+02
 0.15870992741E+02 0.16439967827E+02 0.16629940449E+02 0.16439962221E+02 0.15870996844E+02
 0.14938353518E+02 0.13700165737E+02 0.12275781588E+02 0.10787342274E+02 0.93262016563E+01
 0.79665116082E+01 0.67607869772E+01 0.57380144307E+01 0.49059606733E+01 0.42571274401E+01
 0.37761894550E+01 0.34465167555E+01 0.32544572124E+01 0.31914083843E+01 0.32544755962E+01
 0.34465535057E+01 0.37762186949E+01 0.42571152890E+01 0.49059153506E+01 0.57379814440E+01
 0.67607896110E+01 0.79665143147E+01 0.94905711881E+01 0.11141117581E+02 0.12832731997E+02
 0.14450157425E+02 0.15851742776E+02 0.16882466816E+02 0.17426859105E+02 0.17426881653E+02
 0.16882498766E+02 0.15851739942E+02 0.14450139292E+02 0.12832735173E+02 0.11141128054E+02
 0.94905611390E+01 0.79665005768E+01 0.66243556460E+01 0.54918781424E+01 0.45735960976E+01
 0.38572702678E+01 0.33215512724E+01 0.29432169733E+01 0.27024401072E+01 0.25854929713E+01
 0.25855026799E+01 0.27024491736E+01 0.29432063768E+01 0.33215422746E+01 0.38572809492E+01
 0.45736036639E+01 0.54918652439E+01 0.66243471939E+01 0.82665289079E+01 0.99757609899E+01
 0.11818726133E+02 0.13684179065E+02 0.15420384364E+02 0.16848717974E+02 0.17793788504E+02
 0.18124881557E+02 0.17793808453E+02 0.16848733110E+02 0.15420378223E+02 0.13684163287E+02
 0.11818723813E+02 0.99757799617E+01 0.82665547811E+01 0.67607745432E+01 0.54918718007E+01
 0.44644989686E+01 0.36631004592E+01 0.30608958475E+01 0.26281458695E+01 0.23384347878E+01
 0.21722527501E+01 0.21181024571E+01 0.21722421248E+01 0.23384098394E+01 0.26281178030E+01
 0.30608895263E+01 0.36631262447E+01 0.44645371904E+01 0.54918923390E+01 0.67607654018E+01
 0.88624086658E+01 0.10761980405E+02 0.12774087518E+02 0.14751850823E+02 0.16505757058E+02
 0.17829795704E+02 0.18544535101E+02 0.18544529275E+02 0.17829796902E+02 0.16505779024E+02
 0.14751864452E+02 0.12774071849E+02 0.10761965138E+02 0.88624201060E+01 0.71714309339E+01
 0.57380103603E+01 0.45735963370E+01 0.36631094384E+01 0.29760801387E+01 0.24767798022E+01
 0.21320869582E+01 0.19161898207E+01 0.18122664388E+01 0.18122557419E+01 0.19161796776E+01
 0.21320983451E+01 0.24767892989E+01 0.29760671352E+01 0.36630995010E+01 0.45736114286E+01