   2   2   0   0
  0.2001288E+02  0.3839590E-09  0.3839590E-09  0.3839590E-09  0.5000000E-15
  1.000000000000000E-004
  CAR 
 unknown system                          
     16.21997192     -7.92548687  301      5.72132159      1.00000000
     -7.925  0.0000E+00  0.0000E+00
     -7.845  0.0000E+00  0.0000E+00
     -7.765  0.0000E+00  0.0000E+00
     -7.684  0.0000E+00  0.0000E+00
     -7.604 -0.4912E-30 -0.3953E-31
     -7.523 -0.3402E-27 -0.2742E-28
     -7.443 -0.1701E-24 -0.1372E-25
     -7.362 -0.6135E-22 -0.4952E-23
     -7.282 -0.1595E-19 -0.1289E-20
     -7.201 -0.2988E-17 -0.2417E-18
     -7.121 -0.4029E-15 -0.3267E-16
     -7.040 -0.3784E-13 -0.3079E-14
     -6.960 -0.2626E-11 -0.2144E-12
     -6.879 -0.1306E-09 -0.1072E-10
     -6.799 -0.4643E-08 -0.3844E-09
     -6.718 -0.1177E-06 -0.9857E-08
     -6.638 -0.2116E-05 -0.1802E-06
     -6.557 -0.2680E-04 -0.2337E-05
     -6.477 -0.2362E-03 -0.2135E-04
     -6.396 -0.1419E-02 -0.1356E-03
     -6.316 -0.5554E-02 -0.5826E-03
     -6.235 -0.1250E-01 -0.1589E-02
     -6.155 -0.6986E-02 -0.2151E-02
     -6.074  0.4661E-01  0.1600E-02
     -5.994  0.1575E+00  0.1427E-01
     -5.913  0.2492E+00  0.3433E-01
     -5.833  0.2244E+00  0.5239E-01
     -5.752  0.9780E-01  0.6026E-01
     -5.672 -0.1713E-01  0.5888E-01
     -5.591 -0.2274E-02  0.5870E-01
     -5.511  0.2226E+00  0.7661E-01
     -5.430  0.5803E+00  0.1233E+00
     -5.350  0.7706E+00  0.1853E+00
     -5.269  0.5870E+00  0.2326E+00
     -5.189  0.2145E+00  0.2498E+00
     -5.109 -0.3992E-02  0.2495E+00
     -5.028  0.9854E-01  0.2575E+00
     -4.948  0.4468E+00  0.2934E+00
     -4.867  0.7395E+00  0.3529E+00
     -4.787  0.6779E+00  0.4075E+00
     -4.706  0.3285E+00  0.4339E+00
     -4.626  0.4163E-01  0.4373E+00
     -4.545  0.6339E-01  0.4424E+00
     -4.465  0.3943E+00  0.4741E+00
     -4.384  0.8026E+00  0.5387E+00
     -4.304  0.9216E+00  0.6129E+00
     -4.223  0.6122E+00  0.6621E+00
     -4.143  0.2159E+00  0.6795E+00
     -4.062  0.2495E+00  0.6996E+00
     -3.982  0.8367E+00  0.7670E+00
     -3.901  0.1499E+01  0.8876E+00
     -3.821  0.1680E+01  0.1023E+01
     -3.740  0.1380E+01  0.1134E+01
     -3.660  0.9192E+00  0.1208E+01
     -3.579  0.4597E+00  0.1245E+01
     -3.499  0.9645E-01  0.1253E+01
     -3.418 -0.2929E-01  0.1250E+01
     -3.338  0.1515E+00  0.1262E+01
     -3.257  0.5154E+00  0.1304E+01
     -3.177  0.7329E+00  0.1363E+01
     -3.096  0.5821E+00  0.1410E+01
     -3.016  0.2919E+00  0.1433E+01
     -2.935  0.2856E+00  0.1456E+01
     -2.855  0.6813E+00  0.1511E+01
     -2.774  0.1271E+01  0.1613E+01
     -2.694  0.1732E+01  0.1753E+01
     -2.613  0.1710E+01  0.1890E+01
     -2.533  0.1122E+01  0.1981E+01
     -2.453  0.3969E+00  0.2013E+01
     -2.372 -0.1059E-01  0.2012E+01
     -2.292 -0.8577E-01  0.2005E+01
     -2.211 -0.4513E-01  0.2001E+01
     -2.131 -0.1300E-01  0.2000E+01
     -2.050 -0.2406E-02  0.2000E+01
     -1.970 -0.3016E-03  0.2000E+01
     -1.889 -0.2697E-04  0.2000E+01
     -1.809 -0.1509E-04  0.2000E+01
     -1.728 -0.1710E-03  0.2000E+01
     -1.648 -0.1515E-02  0.2000E+01
     -1.567 -0.9225E-02  0.1999E+01
     -1.487 -0.3725E-01  0.1996E+01
     -1.406 -0.9094E-01  0.1989E+01
     -1.326 -0.8595E-01  0.1982E+01
     -1.245  0.2146E+00  0.1999E+01
     -1.165  0.9801E+00  0.2078E+01
     -1.084  0.1928E+01  0.2233E+01
     -1.004  0.2485E+01  0.2433E+01
     -0.923  0.2422E+01  0.2628E+01
     -0.843  0.1945E+01  0.2785E+01
     -0.762  0.1287E+01  0.2888E+01
     -0.682  0.6178E+00  0.2938E+01
     -0.601  0.1402E+00  0.2949E+01
     -0.521 -0.5876E-01  0.2945E+01
     -0.440 -0.8904E-01  0.2937E+01
     -0.360 -0.9066E-01  0.2930E+01
     -0.279 -0.5835E-01  0.2925E+01
     -0.199  0.1866E+00  0.2940E+01
     -0.118  0.7937E+00  0.3004E+01
     -0.038  0.1502E+01  0.3125E+01
      0.043  0.1694E+01  0.3262E+01
      0.123  0.1157E+01  0.3355E+01
      0.203  0.4087E+00  0.3388E+01
      0.284 -0.1103E-01  0.3387E+01
      0.364 -0.8680E-01  0.3380E+01
      0.445 -0.5053E-01  0.3376E+01
      0.525 -0.3427E-01  0.3373E+01
      0.606 -0.4282E-01  0.3369E+01
      0.686 -0.1754E-03  0.3369E+01
      0.767  0.2042E+00  0.3386E+01
      0.847  0.5379E+00  0.3429E+01
      0.928  0.7332E+00  0.3488E+01
      1.008  0.6370E+00  0.3539E+01
      1.089  0.5132E+00  0.3581E+01
      1.169  0.6165E+00  0.3630E+01
      1.250  0.7326E+00  0.3689E+01
      1.330  0.5569E+00  0.3734E+01
      1.411  0.1829E+00  0.3749E+01
      1.491 -0.9483E-01  0.3741E+01
      1.572 -0.5834E-01  0.3737E+01
      1.652  0.4839E+00  0.3775E+01
      1.733  0.1461E+01  0.3893E+01
      1.813  0.2188E+01  0.4069E+01
      1.894  0.1969E+01  0.4228E+01
      1.974  0.1031E+01  0.4311E+01
      2.055  0.1891E+00  0.4326E+01
      2.135 -0.1655E+00  0.4312E+01
      2.216 -0.1358E+00  0.4301E+01
      2.296  0.2245E+00  0.4320E+01
      2.377  0.9743E+00  0.4398E+01
      2.457  0.1902E+01  0.4551E+01
      2.538  0.2430E+01  0.4747E+01
      2.618  0.2154E+01  0.4920E+01
      2.699  0.1446E+01  0.5036E+01
      2.779  0.1101E+01  0.5125E+01
      2.859  0.1279E+01  0.5228E+01
      2.940  0.1400E+01  0.5341E+01
      3.020  0.1276E+01  0.5443E+01
      3.101  0.1310E+01  0.5549E+01
      3.181  0.1436E+01  0.5664E+01
      3.262  0.1141E+01  0.5756E+01
      3.342  0.5970E+00  0.5804E+01
      3.423  0.5876E+00  0.5851E+01
      3.503  0.1307E+01  0.5957E+01
      3.584  0.1964E+01  0.6115E+01
      3.664  0.1823E+01  0.6261E+01
      3.745  0.1288E+01  0.6365E+01
      3.825  0.1329E+01  0.6472E+01
      3.906  0.1936E+01  0.6628E+01
      3.986  0.2095E+01  0.6796E+01
      4.067  0.1435E+01  0.6912E+01
      4.147  0.7653E+00  0.6973E+01
      4.228  0.6909E+00  0.7029E+01
      4.308  0.8677E+00  0.7099E+01
      4.389  0.9178E+00  0.7173E+01
      4.469  0.1044E+01  0.7257E+01
      4.550  0.1362E+01  0.7366E+01
      4.630  0.1509E+01  0.7488E+01
      4.711  0.1246E+01  0.7588E+01
      4.791  0.7703E+00  0.7650E+01
      4.872  0.4071E+00  0.7683E+01
      4.952  0.3709E+00  0.7713E+01
      5.033  0.6003E+00  0.7761E+01
      5.113  0.7316E+00  0.7820E+01
      5.194  0.5256E+00  0.7862E+01
      5.274  0.1777E+00  0.7877E+01
      5.355  0.1186E-01  0.7878E+01
      5.435  0.1287E+00  0.7888E+01
      5.515  0.3820E+00  0.7919E+01
      5.596  0.5109E+00  0.7960E+01
      5.676  0.3876E+00  0.7991E+01
      5.757  0.1542E+00  0.8003E+01
      5.837  0.5987E-02  0.8004E+01
      5.918 -0.2707E-01  0.8002E+01
      5.998 -0.1540E-01  0.8000E+01
      6.079 -0.4613E-02  0.8000E+01
      6.159 -0.1169E-02  0.8000E+01
      6.240 -0.2238E-02  0.8000E+01
      6.320 -0.1003E-01  0.7999E+01
      6.401 -0.2915E-01  0.7997E+01
      6.481 -0.3849E-01  0.7994E+01
      6.562  0.4925E-01  0.7998E+01
      6.642  0.3222E+00  0.8023E+01
      6.723  0.6614E+00  0.8077E+01
      6.803  0.7491E+00  0.8137E+01
      6.884  0.4770E+00  0.8175E+01
      6.964  0.1451E+00  0.8187E+01
      7.045  0.1097E+00  0.8196E+01
      7.125  0.4040E+00  0.8228E+01
      7.206  0.7073E+00  0.8285E+01
      7.286  0.6835E+00  0.8340E+01
      7.367  0.3943E+00  0.8372E+01
      7.447  0.1875E+00  0.8387E+01
      7.528  0.2562E+00  0.8408E+01
      7.608  0.5606E+00  0.8453E+01
      7.689  0.9608E+00  0.8530E+01
      7.769  0.1252E+01  0.8631E+01
      7.850  0.1348E+01  0.8740E+01
      7.930  0.1415E+01  0.8853E+01
      8.011  0.1572E+01  0.8980E+01
      8.091  0.1717E+01  0.9118E+01
      8.171  0.1816E+01  0.9264E+01
      8.252  0.1824E+01  0.9411E+01
      8.332  0.1500E+01  0.9532E+01
      8.413  0.9080E+00  0.9605E+01
      8.493  0.6025E+00  0.9653E+01
      8.574  0.9918E+00  0.9733E+01
      8.654  0.1924E+01  0.9888E+01
      8.735  0.2744E+01  0.1011E+02
      8.815  0.2695E+01  0.1033E+02
      8.896  0.1718E+01  0.1046E+02
      8.976  0.5674E+00  0.1051E+02
      9.057 -0.1062E+00  0.1050E+02
      9.137 -0.1902E+00  0.1049E+02
      9.218  0.3198E+00  0.1051E+02
      9.298  0.1427E+01  0.1063E+02
      9.379  0.2687E+01  0.1084E+02
      9.459  0.3323E+01  0.1111E+02
      9.540  0.3038E+01  0.1135E+02
      9.620  0.2237E+01  0.1153E+02
      9.701  0.1430E+01  0.1165E+02
      9.781  0.8563E+00  0.1172E+02
      9.862  0.6113E+00  0.1177E+02
      9.942  0.7555E+00  0.1183E+02
     10.023  0.1200E+01  0.1193E+02
     10.103  0.1673E+01  0.1206E+02
     10.184  0.1846E+01  0.1221E+02
     10.264  0.1593E+01  0.1234E+02
     10.345  0.1122E+01  0.1243E+02
     10.425  0.7496E+00  0.1249E+02
     10.506  0.6795E+00  0.1254E+02
     10.586  0.8293E+00  0.1261E+02
     10.667  0.9253E+00  0.1268E+02
     10.747  0.9879E+00  0.1276E+02
     10.827  0.1233E+01  0.1286E+02
     10.908  0.1472E+01  0.1298E+02
     10.988  0.1450E+01  0.1310E+02
     11.069  0.1434E+01  0.1321E+02
     11.149  0.1662E+01  0.1335E+02
     11.230  0.1922E+01  0.1350E+02
     11.310  0.1955E+01  0.1366E+02
     11.391  0.1600E+01  0.1379E+02
     11.471  0.8654E+00  0.1386E+02
     11.552  0.1759E+00  0.1387E+02
     11.632  0.1035E+00  0.1388E+02
     11.713  0.8270E+00  0.1395E+02
     11.793  0.1814E+01  0.1409E+02
     11.874  0.2148E+01  0.1426E+02
     11.954  0.1650E+01  0.1440E+02
     12.035  0.1180E+01  0.1449E+02
     12.115  0.1289E+01  0.1460E+02
     12.196  0.1426E+01  0.1471E+02
     12.276  0.1024E+01  0.1479E+02
     12.357  0.3714E+00  0.1482E+02
     12.437 -0.2735E-01  0.1482E+02
     12.518 -0.1189E+00  0.1481E+02
     12.598 -0.5259E-01  0.1481E+02
     12.679  0.1615E+00  0.1482E+02
     12.759  0.5100E+00  0.1486E+02
     12.840  0.7393E+00  0.1492E+02
     12.920  0.5874E+00  0.1497E+02
     13.001  0.2177E+00  0.1499E+02
     13.081  0.1541E+00  0.1500E+02
     13.162  0.7591E+00  0.1506E+02
     13.242  0.1736E+01  0.1520E+02
     13.323  0.2212E+01  0.1538E+02
     13.403  0.1695E+01  0.1551E+02
     13.483  0.7195E+00  0.1557E+02
     13.564  0.1022E+00  0.1558E+02
     13.644  0.2788E-01  0.1558E+02
     13.725  0.1565E+00  0.1559E+02
     13.805  0.1743E+00  0.1561E+02
     13.886  0.6872E-01  0.1561E+02
     13.966  0.8048E-01  0.1562E+02
     14.047  0.4454E+00  0.1566E+02
     14.127  0.1060E+01  0.1574E+02
     14.208  0.1432E+01  0.1586E+02
     14.288  0.1201E+01  0.1595E+02
     14.369  0.5971E+00  0.1600E+02
     14.449  0.1150E+00  0.1601E+02
     14.530 -0.5743E-01  0.1601E+02
     14.610 -0.5306E-01  0.1600E+02
     14.691 -0.2052E-01  0.1600E+02
     14.771 -0.4884E-02  0.1600E+02
     14.852 -0.7783E-03  0.1600E+02
     14.932 -0.8578E-04  0.1600E+02
     15.013 -0.6642E-05  0.1600E+02
     15.093 -0.3644E-06  0.1600E+02
     15.174 -0.1424E-07  0.1600E+02
     15.254 -0.3979E-09  0.1600E+02
     15.335 -0.7965E-11  0.1600E+02
     15.415 -0.1148E-12  0.1600E+02
     15.496 -0.1035E-14  0.1600E+02
     15.576  0.0000E+00  0.1600E+02
     15.657  0.0000E+00  0.1600E+02
     15.737  0.0000E+00  0.1600E+02
     15.818  0.0000E+00  0.1600E+02
     15.898  0.0000E+00  0.1600E+02
     15.979  0.0000E+00  0.1600E+02
     16.059  0.0000E+00  0.1600E+02
     16.139  0.0000E+00  0.1600E+02
     16.220  0.0000E+00  0.1600E+02
