    2    2    1    1
  0.2001288E+02  0.3839590E-09  0.3839590E-09  0.3839590E-09  0.5000000E-15
  1.000000000000000E-004
  CAR 
 unknown system                          
    8   10    8
 
  0.1250000E+00  0.1250000E+00  0.1250000E+00  0.3125000E-01
   1       -5.925487
   2        4.241902
   3        5.552969
   4        5.552969
   5        8.348776
   6        8.836169
   7        8.836169
   8       10.557128
 
  0.3750000E+00  0.1250000E+00  0.1250000E+00  0.9375000E-01
   1       -4.878987
   2        1.210665
   3        3.526320
   4        5.064455
   5        8.568797
   6        9.526758
   7        9.711826
   8       12.154419
 
 -0.3750000E+00  0.1250000E+00  0.1250000E+00  0.9375000E-01
   1       -3.710669
   2       -0.914698
   3        3.557726
   4        4.274963
   5        8.044574
   6        9.368864
   7        9.960047
   8       13.231905
 
 -0.1250000E+00  0.1250000E+00  0.1250000E+00  0.9375000E-01
   1       -5.387872
   2        2.613432
   3        4.519894
   4        4.596910
   5        7.995149
   6        9.556664
   7       10.323268
   8       10.611423
 
  0.3750000E+00  0.3750000E+00  0.1250000E+00  0.9375000E-01
   1       -4.336810
   2        0.895567
   3        3.165520
   4        3.628310
   5        7.198768
   6        8.749102
   7       11.858966
   8       12.132514
 
 -0.3750000E+00  0.3750000E+00  0.1250000E+00  0.1875000E+00
   1       -2.659997
   2       -1.097816
   3        1.774275
   4        2.875557
   5        8.239256
   6       10.137546
   7       11.132604
   8       13.302316
 
 -0.1250000E+00  0.3750000E+00  0.1250000E+00  0.1875000E+00
   1       -3.910955
   2       -0.006349
   3        2.514564
   4        3.907363
   5        8.728492
   6        9.407084
   7       10.875083
   8       11.799545
 
 -0.3750000E+00 -0.3750000E+00  0.1250000E+00  0.9375000E-01
   1       -2.836181
   2       -0.995762
   3        2.399087
   4        3.152365
   5        6.743948
   6        7.817797
   7       14.134605
   8       14.219972
 
  0.3750000E+00  0.3750000E+00  0.3750000E+00  0.3125000E-01
   1       -4.435751
   2       -0.113272
   3        4.750799
   4        4.750799
   5        7.514160
   6        9.305154
   7        9.305154
   8       13.724599
 
 -0.3750000E+00  0.3750000E+00  0.3750000E+00  0.9375000E-01
   1       -3.206017
   2       -0.807037
   3        1.841942
   4        3.949282
   5        7.695037
   6       11.327317
   7       11.335949
   8       12.817384
