       N       E                     dE             d eps       ncg     rms          rms(c)
DAV:   1    -0.108186010752E+02   -0.10819E+02   -0.82265E-12    80   0.175E-05    0.155E-06
DAV:   2    -0.108186010755E+02   -0.22021E-09   -0.18271E-12    80   0.765E-06
   1 F= -.10818601E+02 E0= -.10818843E+02  d E =0.726437E-03
