 vasp.5.3.3.4 18Dez12 (build Jun 09 2015 23:09:51) complex                      
  
 POSCAR found :  1 types and       2 ions
 LDA part: xc-table for Pade appr. of Perdew
 found WAVECAR, reading the header
 POSCAR, INCAR and KPOINTS ok, starting setup
 WARNING: small aliasing (wrap around) errors must be expected
 FFT: planning ...
 reading WAVECAR
 the WAVECAR file was read sucessfully
 initial charge from wavefunction
 entering main loop
       N       E                     dE             d eps       ncg     rms          rms(c)
DAV:   1    -0.108186010764E+02   -0.10819E+02   -0.51703E-09    80   0.560E-04    0.207E-05
DAV:   2    -0.108186010759E+02    0.46938E-09   -0.61544E-10    80   0.191E-04
   1 F= -.10818601E+02 E0= -.10818843E+02  d E =0.726437E-03
 writing wavefunctions
