<?xml version="1.0" encoding="ISO-8859-1"?>
<modeling>
 <generator>
  <i name="program" type="string">vasp </i>
  <i name="version" type="string">5.3.3.4  </i>
  <i name="subversion" type="string">18Dez12 (build Jun 09 2015 23:09:51) complex                        serial </i>
  <i name="platform" type="string">half-orig-serial </i>
  <i name="date" type="string">2019 07 19 </i>
  <i name="time" type="string">09:08:26 </i>
 </generator>
 <incar>
  <i type="string" name="PREC">normal</i>
  <i type="string" name="GGA"> PE</i>
 </incar>
 <kpoints>
  <generation param="Monkhorst-Pack">
   <v type="int" name="divisions">       4        4        4 </v>
   <v name="usershift">      0.00000000       0.00000000       0.00000000 </v>
   <v name="genvec1">      0.25000000       0.00000000      -0.00000000 </v>
   <v name="genvec2">      0.00000000       0.25000000       0.00000000 </v>
   <v name="genvec3">     -0.00000000      -0.00000000       0.25000000 </v>
   <v name="shift">      0.50000000       0.50000000       0.50000000 </v>
  </generation>
  <varray name="kpointlist" >
   <v>       0.12500000       0.12500000       0.12500000 </v>
   <v>       0.37500000       0.12500000       0.12500000 </v>
   <v>      -0.37500000       0.12500000       0.12500000 </v>
   <v>      -0.12500000       0.12500000       0.12500000 </v>
   <v>       0.37500000       0.37500000       0.12500000 </v>
   <v>      -0.37500000       0.37500000       0.12500000 </v>
   <v>      -0.12500000       0.37500000       0.12500000 </v>
   <v>      -0.37500000      -0.37500000       0.12500000 </v>
   <v>       0.37500000       0.37500000       0.37500000 </v>
   <v>      -0.37500000       0.37500000       0.37500000 </v>
  </varray>
  <varray name="weights" >
   <v>       0.03125000 </v>
   <v>       0.09375000 </v>
   <v>       0.09375000 </v>
   <v>       0.09375000 </v>
   <v>       0.09375000 </v>
   <v>       0.18750000 </v>
   <v>       0.18750000 </v>
   <v>       0.09375000 </v>
   <v>       0.03125000 </v>
   <v>       0.09375000 </v>
  </varray>
 </kpoints>
 <parameters>
  <separator name="general" >
   <i type="string" name="SYSTEM">unknown system</i>
   <i type="logical" name="LCOMPAT"> F  </i>
  </separator>
  <separator name="electronic" >
   <i type="string" name="PREC">normal</i>
   <i name="ENMAX">    245.34500000</i>
   <i name="ENAUG">    322.06900000</i>
   <i name="EDIFF">      0.00010000</i>
   <i type="int" name="IALGO">    38</i>
   <i type="int" name="IWAVPR">     0</i>
   <i type="int" name="NBANDS">     8</i>
   <i name="NELECT">      8.00000000</i>
   <i type="int" name="TURBO">     0</i>
   <i type="int" name="IRESTART">     0</i>
   <i type="int" name="NREBOOT">     0</i>
   <i type="int" name="NMIN">     0</i>
   <i name="EREF">      0.00000000</i>
   <separator name="electronic smearing" >
    <i type="int" name="ISMEAR">     1</i>
    <i name="SIGMA">      0.20000000</i>
    <i name="KSPACING">      0.50000000</i>
    <i type="logical" name="KGAMMA"> T  </i>
   </separator>
   <separator name="electronic projectors" >
    <i type="logical" name="LREAL"> F  </i>
    <v name="ROPT">      0.00000000</v>
    <i type="int" name="LMAXPAW">  -100</i>
    <i type="int" name="LMAXMIX">     2</i>
    <i type="logical" name="NLSPLINE"> F  </i>
   </separator>
   <separator name="electronic startup" >
    <i type="int" name="ISTART">     1</i>
    <i type="int" name="ICHARG">     0</i>
    <i type="int" name="INIWAV">     1</i>
   </separator>
   <separator name="electronic spin" >
    <i type="int" name="ISPIN">     1</i>
    <i type="logical" name="LNONCOLLINEAR"> F  </i>
    <v name="MAGMOM">      1.00000000      1.00000000</v>
    <i name="NUPDOWN">     -1.00000000</i>
    <i type="logical" name="LSORBIT"> F  </i>
    <v name="SAXIS">      0.00000000      0.00000000      1.00000000</v>
    <i type="logical" name="LSPIRAL"> F  </i>
    <v name="QSPIRAL">      0.00000000      0.00000000      0.00000000</v>
    <i type="logical" name="LZEROZ"> F  </i>
   </separator>
   <separator name="electronic exchange-correlation" >
    <i type="logical" name="LASPH"> F  </i>
    <i type="logical" name="LMETAGGA"> F  </i>
   </separator>
   <separator name="electronic convergence" >
    <i type="int" name="NELM">    60</i>
    <i type="int" name="NELMDL">     0</i>
    <i type="int" name="NELMIN">     2</i>
    <i name="ENINI">    245.34500000</i>
    <separator name="electronic convergence detail" >
     <i type="logical" name="LDIAG"> T  </i>
     <i type="logical" name="LSUBROT"> T  </i>
     <i name="WEIMIN">      0.00000000</i>
     <i name="EBREAK">      0.00000313</i>
     <i name="DEPER">      0.30000000</i>
     <i type="int" name="NRMM">     4</i>
     <i name="TIME">      0.40000000</i>
    </separator>
   </separator>
   <separator name="electronic mixer" >
    <i name="AMIX">      0.40000000</i>
    <i name="BMIX">      1.00000000</i>
    <i name="AMIN">      0.10000000</i>
    <i name="AMIX_MAG">      1.60000000</i>
    <i name="BMIX_MAG">      1.00000000</i>
    <separator name="electronic mixer details" >
     <i type="int" name="IMIX">     4</i>
     <i type="int" name="MAXMIX">   -45</i>
     <i name="WC">    100.00000000</i>
     <i type="int" name="INIMIX">     1</i>
     <i type="int" name="MIXPRE">     1</i>
     <i type="int" name="MREMOVE">     5</i>
    </separator>
   </separator>
   <separator name="electronic dipolcorrection" >
    <i type="logical" name="LDIPOL"> F  </i>
    <i type="logical" name="LMONO"> F  </i>
    <i type="int" name="IDIPOL">     0</i>
    <i name="EPSILON">      1.00000000</i>
    <v name="DIPOL">   -100.00000000   -100.00000000   -100.00000000</v>
    <i name="EFIELD">      0.00000000</i>
   </separator>
  </separator>
  <separator name="grids" >
   <i type="int" name="NGX">    16</i>
   <i type="int" name="NGY">    16</i>
   <i type="int" name="NGZ">    16</i>
   <i type="int" name="NGXF">    32</i>
   <i type="int" name="NGYF">    32</i>
   <i type="int" name="NGZF">    32</i>
   <i type="logical" name="ADDGRID"> F  </i>
  </separator>
  <separator name="ionic" >
   <i type="int" name="NSW">     0</i>
   <i type="int" name="IBRION">    -1</i>
   <i type="int" name="ISIF">     2</i>
   <i name="PSTRESS">      0.00000000</i>
   <i name="EDIFFG">      0.00100000</i>
   <i type="int" name="NFREE">     0</i>
   <i name="POTIM">      0.50000000</i>
   <i name="SMASS">     -3.00000000</i>
   <i name="SCALEE">      1.00000000</i>
  </separator>
  <separator name="ionic md" >
   <i name="TEBEG">      0.00010000</i>
   <i name="TEEND">      0.00010000</i>
   <i type="int" name="NBLOCK">     1</i>
   <i type="int" name="KBLOCK">     1</i>
   <i type="int" name="NPACO">   256</i>
   <i name="APACO">     16.00000000</i>
  </separator>
  <separator name="symmetry" >
   <i type="int" name="ISYM">     2</i>
   <i name="SYMPREC">      0.00001000</i>
  </separator>
  <separator name="dos" >
   <i type="logical" name="LORBIT"> F  </i>
   <v name="RWIGS">     -1.00000000</v>
   <i type="int" name="NEDOS">   301</i>
   <i name="EMIN">     10.00000000</i>
   <i name="EMAX">    -10.00000000</i>
   <i name="EFERMI">      0.00000000</i>
  </separator>
  <separator name="writing" >
   <i type="int" name="NWRITE">     2</i>
   <i type="logical" name="LWAVE"> T  </i>
   <i type="logical" name="LCHARG"> T  </i>
   <i type="logical" name="LPARD"> F  </i>
   <i type="logical" name="LVTOT"> F  </i>
   <i type="logical" name="LVHAR"> F  </i>
   <i type="logical" name="LELF"> F  </i>
   <i type="logical" name="LOPTICS"> F  </i>
   <v name="STM">      0.00000000      0.00000000      0.00000000      0.00000000      0.00000000      0.00000000      0.00000000</v>
  </separator>
  <separator name="performance" >
   <i type="int" name="NPAR">     1</i>
   <i type="int" name="NSIM">     4</i>
   <i type="int" name="NBLK">    -1</i>
   <i type="logical" name="LPLANE"> T  </i>
   <i type="logical" name="LSCALAPACK"> F  </i>
   <i type="logical" name="LSCAAWARE"> F  </i>
   <i type="logical" name="LSCALU"> F  </i>
   <i type="logical" name="LASYNC"> F  </i>
   <i type="logical" name="LORBITALREAL"> F  </i>
  </separator>
  <separator name="miscellaneous" >
   <i type="int" name="IDIOT">     3</i>
   <i type="logical" name="LMUSIC"> F  </i>
   <v name="POMASS">     28.08500000</v>
   <v name="DARWINR">      0.00000000</v>
   <v name="DARWINV">      1.00000000</v>
   <i type="logical" name="LCORR"> T  </i>
  </separator>
  <i type="logical" name="GGA_COMPAT"> T  </i>
  <i type="logical" name="LBERRY"> F  </i>
  <i type="int" name="ICORELEVEL">     0</i>
  <i type="logical" name="LDAU"> F  </i>
  <i type="int" name="I_CONSTRAINED_M">     0</i>
  <separator name="electronic exchange-correlation" >
   <i type="string" name="GGA">PE</i>
   <i type="int" name="VOSKOWN">     0</i>
   <i type="logical" name="LHFCALC"> F  </i>
   <i type="string" name="PRECFOCK"></i>
   <i type="logical" name="LSYMGRAD"> F  </i>
   <i type="logical" name="LHFONE"> F  </i>
   <i type="logical" name="LRHFCALC"> F  </i>
   <i type="logical" name="LTHOMAS"> F  </i>
   <i type="logical" name="LMODELHF"> F  </i>
   <i name="ENCUT4O">     -1.00000000</i>
   <i type="int" name="EXXOEP">     0</i>
   <i type="int" name="FOURORBIT">     0</i>
   <i name="AEXX">      0.00000000</i>
   <i name="HFALPHA">      0.00000000</i>
   <i name="MCALPHA">      0.00000000</i>
   <i name="ALDAX">      1.00000000</i>
   <i name="AGGAX">      1.00000000</i>
   <i name="ALDAC">      1.00000000</i>
   <i name="AGGAC">      1.00000000</i>
   <i type="int" name="NKREDX">     1</i>
   <i type="int" name="NKREDY">     1</i>
   <i type="int" name="NKREDZ">     1</i>
   <i type="logical" name="SHIFTRED"> F  </i>
   <i type="logical" name="ODDONLY"> F  </i>
   <i type="logical" name="EVENONLY"> F  </i>
   <i type="int" name="LMAXFOCK">     0</i>
   <i type="int" name="NMAXFOCKAE">     0</i>
   <i type="logical" name="LFOCKAEDFT"> F  </i>
   <i name="HFSCREEN">      0.00000000</i>
   <i name="HFSCREENC">      0.00000000</i>
   <i type="int" name="NBANDSGWLOW">     0</i>
  </separator>
  <separator name="vdW DFT" >
   <i type="logical" name="LUSE_VDW"> F  </i>
   <i name="Zab_VDW">     -0.84910000</i>
   <i name="PARAM1">      0.12340000</i>
   <i name="PARAM2">      1.00000000</i>
   <i name="PARAM3">      0.00000000</i>
  </separator>
  <separator name="model GW" >
   <i type="int" name="MODEL_GW">     0</i>
   <i name="MODEL_EPS0">     12.00772552</i>
   <i name="MODEL_ALPHA">      1.00000000</i>
  </separator>
  <separator name="linear response parameters" >
   <i type="logical" name="LEPSILON"> F  </i>
   <i type="logical" name="LRPA"> F  </i>
   <i type="logical" name="LNABLA"> F  </i>
   <i type="logical" name="LVEL"> F  </i>
   <i type="int" name="KINTER">     0</i>
   <i name="CSHIFT">      0.10000000</i>
   <i name="OMEGAMAX">     -1.00000000</i>
   <i name="DEG_THRESHOLD">      0.00200000</i>
  </separator>
  <separator name="orbital magnetization" >
   <i type="logical" name="NUCIND"> F  </i>
   <v name="MAGPOS">      0.00000000      0.00000000      0.00000000</v>
   <i type="logical" name="LNICSALL"> T  </i>
   <i type="logical" name="ORBITALMAG"> F  </i>
   <i type="logical" name="LMAGBLOCH"> F  </i>
   <i type="logical" name="LCHIMAG"> F  </i>
   <i type="logical" name="LGAUGE"> T  </i>
   <i type="int" name="MAGATOM">     0</i>
   <v name="MAGDIPOL">      0.00000000      0.00000000      0.00000000</v>
   <v name="AVECCONST">      0.00000000      0.00000000      0.00000000</v>
  </separator>
  <separator name="response functions" >
   <i type="logical" name="LADDER"> F  </i>
   <i type="logical" name="LFXC"> F  </i>
   <i type="logical" name="LHARTREE"> T  </i>
   <i type="int" name="IBSE">     0</i>
   <i type="logical" name="LTCTE"> F  </i>
   <i type="logical" name="LTETE"> F  </i>
   <i type="logical" name="LTRIPLET"> F  </i>
   <i type="logical" name="LFXCEPS"> F  </i>
   <i type="logical" name="L2ORDER"> F  </i>
   <i type="logical" name="LUSEW"> F  </i>
   <i name="ENCUTGW">     -2.00000000</i>
   <i name="ENCUTGWSOFT">     -2.00000000</i>
   <i name="ENCUTLF">     -1.00000000</i>
   <i type="int" name="LMAXMP2">    -1</i>
   <i name="SCISSOR">      0.00000000</i>
   <i type="int" name="NOMEGA">     0</i>
   <i type="int" name="NOMEGAR">     0</i>
   <i type="int" name="NBANDSGW">    -1</i>
   <i type="int" name="NBANDSO">    -1</i>
   <i type="int" name="NBANDSV">    -1</i>
   <i type="int" name="NELM">     1</i>
   <i type="int" name="DIM">     3</i>
   <i type="int" name="ANTIRES">     0</i>
   <i name="OMEGAMAX">    -30.00000000</i>
   <i name="OMEGATL">   -200.00000000</i>
   <i type="int" name="OMEGAGRID">     0</i>
   <i name="CSHIFT">     -0.10000000</i>
   <i type="logical" name="SELFENERGY"> F  </i>
   <i type="logical" name="LSPECTRAL"> F  </i>
   <i type="logical" name="ODDONLYGW"> F  </i>
   <i type="logical" name="EVENONLYGW"> F  </i>
   <i type="int" name="NKREDLFX">     1</i>
   <i type="int" name="NKREDLFY">     1</i>
   <i type="int" name="NKREDLFZ">     1</i>
   <i type="int" name="MAXMEM">  1800</i>
   <i type="int" name="TELESCOPE">     0</i>
  </separator>
 </parameters>
 <atominfo>
  <atoms>       2 </atoms>
  <types>       1 </types>
  <array name="atoms" >
   <dimension dim="1">ion</dimension>
   <field type="string">element</field>
   <field type="int">atomtype</field>
   <set>
    <rc><c>Si</c><c>   1</c></rc>
    <rc><c>Si</c><c>   1</c></rc>
   </set>
  </array>
  <array name="atomtypes" >
   <dimension dim="1">type</dimension>
   <field type="int">atomspertype</field>
   <field type="string">element</field>
   <field>mass</field>
   <field>valence</field>
   <field type="string">pseudopotential</field>
   <set>
    <rc><c>   2</c><c>Si</c><c>     28.08500000</c><c>      4.00000000</c><c> PAW_PBE Si 05Jan2001                   </c></rc>
   </set>
  </array>
 </atominfo>
 <structure name="initialpos" >
  <crystal>
   <varray name="basis" >
    <v>       0.00000000       2.71500000       2.71500000 </v>
    <v>       2.71500000       0.00000000       2.71500000 </v>
    <v>       2.71500000       2.71500000       0.00000000 </v>
   </varray>
   <i name="volume">     40.02575175 </i>
   <varray name="rec_basis" >
    <v>      -0.18416206       0.18416206       0.18416206 </v>
    <v>       0.18416206      -0.18416206       0.18416206 </v>
    <v>       0.18416206       0.18416206      -0.18416206 </v>
   </varray>
  </crystal>
  <varray name="positions" >
   <v>       0.00000000       0.00000000       0.00000000 </v>
   <v>       0.25000000       0.25000000       0.25000000 </v>
  </varray>
 </structure>
 <calculation>
  <scstep>
   <time name="dav">    0.04    0.04</time>
   <time name="total">    0.07    0.08</time>
   <energy>
    <i name="alphaZ">      3.36414203 </i>
    <i name="ewald">   -228.56352493 </i>
    <i name="hartreedc">    -14.91545890 </i>
    <i name="XCdc">    -17.95240228 </i>
    <i name="pawpsdc">     75.04830059 </i>
    <i name="pawaedc">    -40.09307870 </i>
    <i name="eentropy">      0.00072644 </i>
    <i name="bandstr">      6.17012237 </i>
    <i name="atom">    206.12257231 </i>
    <i name="e_fr_energy">    -10.81860108 </i>
    <i name="e_wo_entrp">    -10.81932751 </i>
    <i name="e_0_energy">    -10.81884322 </i>
   </energy>
  </scstep>
  <scstep>
   <time name="dav">    0.03    0.03</time>
   <time name="total">    0.06    0.06</time>
   <energy>
    <i name="alphaZ">      3.36414203 </i>
    <i name="ewald">   -228.56352493 </i>
    <i name="hartreedc">    -14.91545873 </i>
    <i name="XCdc">    -17.95240229 </i>
    <i name="pawpsdc">     75.04830029 </i>
    <i name="pawaedc">    -40.09307839 </i>
    <i name="eentropy">      0.00072644 </i>
    <i name="bandstr">      6.17012220 </i>
    <i name="atom">    206.12257231 </i>
    <i name="e_fr_energy">    -10.81860108 </i>
    <i name="e_wo_entrp">    -10.81932751 </i>
    <i name="e_0_energy">    -10.81884322 </i>
   </energy>
  </scstep>
  <structure>
   <crystal>
    <varray name="basis" >
     <v>       0.00000000       2.71500000       2.71500000 </v>
     <v>       2.71500000       0.00000000       2.71500000 </v>
     <v>       2.71500000       2.71500000       0.00000000 </v>
    </varray>
    <i name="volume">     40.02575175 </i>
    <varray name="rec_basis" >
     <v>      -0.18416206       0.18416206       0.18416206 </v>
     <v>       0.18416206      -0.18416206       0.18416206 </v>
     <v>       0.18416206       0.18416206      -0.18416206 </v>
    </varray>
   </crystal>
   <varray name="positions" >
    <v>       0.00000000       0.00000000       0.00000000 </v>
    <v>       0.25000000       0.25000000       0.25000000 </v>
   </varray>
  </structure>
  <varray name="forces" >
   <v>      -0.00000000      -0.00000000      -0.00000000 </v>
   <v>       0.00000000       0.00000000       0.00000000 </v>
  </varray>
  <varray name="stress" >
   <v>      17.90092109       0.00000000      -0.00000000 </v>
   <v>       0.00000000      17.90092109      -0.00000000 </v>
   <v>      -0.00000000      -0.00000000      17.90092109 </v>
  </varray>
  <energy>
   <i name="e_fr_energy">    -10.81860108 </i>
   <i name="e_wo_entrp">    -10.81884322 </i>
   <i name="e_0_energy">      0.00072644 </i>
  </energy>
  <time name="totalsc">    0.25    0.28</time>
  <eigenvalues>
   <array>
    <dimension dim="1">band</dimension>
    <dimension dim="2">kpoint</dimension>
    <dimension dim="3">spin</dimension>
    <field>eigene</field>
    <field>occ</field>
    <set>
     <set comment="spin 1">
      <set comment="kpoint 1">
       <r>   -5.9255    1.0000 </r>
       <r>    4.2419    1.0000 </r>
       <r>    5.5530    1.0000 </r>
       <r>    5.5530    1.0000 </r>
       <r>    8.3488   -0.0000 </r>
       <r>    8.8362   -0.0000 </r>
       <r>    8.8362   -0.0000 </r>
       <r>   10.5571   -0.0000 </r>
      </set>
      <set comment="kpoint 2">
       <r>   -4.8790    1.0000 </r>
       <r>    1.2107    1.0000 </r>
       <r>    3.5263    1.0000 </r>
       <r>    5.0645    1.0000 </r>
       <r>    8.5688   -0.0000 </r>
       <r>    9.5268   -0.0000 </r>
       <r>    9.7118   -0.0000 </r>
       <r>   12.1544    0.0000 </r>
      </set>
      <set comment="kpoint 3">
       <r>   -3.7107    1.0000 </r>
       <r>   -0.9147    1.0000 </r>
       <r>    3.5577    1.0000 </r>
       <r>    4.2750    1.0000 </r>
       <r>    8.0446   -0.0000 </r>
       <r>    9.3689   -0.0000 </r>
       <r>    9.9600   -0.0000 </r>
       <r>   13.2319    0.0000 </r>
      </set>
      <set comment="kpoint 4">
       <r>   -5.3879    1.0000 </r>
       <r>    2.6134    1.0000 </r>
       <r>    4.5199    1.0000 </r>
       <r>    4.5969    1.0000 </r>
       <r>    7.9951   -0.0000 </r>
       <r>    9.5567   -0.0000 </r>
       <r>   10.3233   -0.0000 </r>
       <r>   10.6114   -0.0000 </r>
      </set>
      <set comment="kpoint 5">
       <r>   -4.3368    1.0000 </r>
       <r>    0.8956    1.0000 </r>
       <r>    3.1655    1.0000 </r>
       <r>    3.6283    1.0000 </r>
       <r>    7.1988   -0.0000 </r>
       <r>    8.7491   -0.0000 </r>
       <r>   11.8590    0.0000 </r>
       <r>   12.1325    0.0000 </r>
      </set>
      <set comment="kpoint 6">
       <r>   -2.6600    1.0000 </r>
       <r>   -1.0978    1.0000 </r>
       <r>    1.7743    1.0000 </r>
       <r>    2.8756    1.0000 </r>
       <r>    8.2393   -0.0000 </r>
       <r>   10.1375   -0.0000 </r>
       <r>   11.1326   -0.0000 </r>
       <r>   13.3023    0.0000 </r>
      </set>
      <set comment="kpoint 7">
       <r>   -3.9110    1.0000 </r>
       <r>   -0.0063    1.0000 </r>
       <r>    2.5146    1.0000 </r>
       <r>    3.9074    1.0000 </r>
       <r>    8.7285   -0.0000 </r>
       <r>    9.4071   -0.0000 </r>
       <r>   10.8751   -0.0000 </r>
       <r>   11.7995    0.0000 </r>
      </set>
      <set comment="kpoint 8">
       <r>   -2.8362    1.0000 </r>
       <r>   -0.9958    1.0000 </r>
       <r>    2.3991    1.0000 </r>
       <r>    3.1524    1.0000 </r>
       <r>    6.7439   -0.0000 </r>
       <r>    7.8178   -0.0000 </r>
       <r>   14.1346    0.0000 </r>
       <r>   14.2200    0.0000 </r>
      </set>
      <set comment="kpoint 9">
       <r>   -4.4358    1.0000 </r>
       <r>   -0.1133    1.0000 </r>
       <r>    4.7508    1.0000 </r>
       <r>    4.7508    1.0000 </r>
       <r>    7.5142   -0.0000 </r>
       <r>    9.3052   -0.0000 </r>
       <r>    9.3052   -0.0000 </r>
       <r>   13.7246    0.0000 </r>
      </set>
      <set comment="kpoint 10">
       <r>   -3.2060    1.0000 </r>
       <r>   -0.8070    1.0000 </r>
       <r>    1.8419    1.0000 </r>
       <r>    3.9493    1.0000 </r>
       <r>    7.6950   -0.0000 </r>
       <r>   11.3273    0.0000 </r>
       <r>   11.3359    0.0000 </r>
       <r>   12.8174    0.0000 </r>
      </set>
     </set>
    </set>
   </array>
  </eigenvalues>
  <separator name="orbital magnetization" >
   <v name="MAGDIPOLOUT">      0.00000000      0.00000000      0.00000000</v>
  </separator>
  <dos>
   <i name="efermi">      5.72132159 </i>
   <total>
    <array>
     <dimension dim="1">gridpoints</dimension>
     <dimension dim="2">spin</dimension>
     <field>energy</field>
     <field>total</field>
     <field>integrated</field>
     <set>
      <set comment="spin 1">
       <r>    -7.9255     0.0000     0.0000 </r>
       <r>    -7.8450     0.0000     0.0000 </r>
       <r>    -7.7645     0.0000     0.0000 </r>
       <r>    -7.6840     0.0000     0.0000 </r>
       <r>    -7.6035    -0.0000    -0.0000 </r>
       <r>    -7.5231    -0.0000    -0.0000 </r>
       <r>    -7.4426    -0.0000    -0.0000 </r>
       <r>    -7.3621    -0.0000    -0.0000 </r>
       <r>    -7.2816    -0.0000    -0.0000 </r>
       <r>    -7.2011    -0.0000    -0.0000 </r>
       <r>    -7.1206    -0.0000    -0.0000 </r>
       <r>    -7.0402    -0.0000    -0.0000 </r>
       <r>    -6.9597    -0.0000    -0.0000 </r>
       <r>    -6.8792    -0.0000    -0.0000 </r>
       <r>    -6.7987    -0.0000    -0.0000 </r>
       <r>    -6.7182    -0.0000    -0.0000 </r>
       <r>    -6.6377    -0.0000    -0.0000 </r>
       <r>    -6.5572    -0.0000    -0.0000 </r>
       <r>    -6.4768    -0.0002    -0.0000 </r>
       <r>    -6.3963    -0.0014    -0.0001 </r>
       <r>    -6.3158    -0.0056    -0.0006 </r>
       <r>    -6.2353    -0.0125    -0.0016 </r>
       <r>    -6.1548    -0.0070    -0.0022 </r>
       <r>    -6.0743     0.0466     0.0016 </r>
       <r>    -5.9939     0.1575     0.0143 </r>
       <r>    -5.9134     0.2492     0.0343 </r>
       <r>    -5.8329     0.2244     0.0524 </r>
       <r>    -5.7524     0.0978     0.0603 </r>
       <r>    -5.6719    -0.0171     0.0589 </r>
       <r>    -5.5914    -0.0023     0.0587 </r>
       <r>    -5.5109     0.2226     0.0766 </r>
       <r>    -5.4305     0.5803     0.1233 </r>
       <r>    -5.3500     0.7706     0.1853 </r>
       <r>    -5.2695     0.5870     0.2326 </r>
       <r>    -5.1890     0.2145     0.2498 </r>
       <r>    -5.1085    -0.0040     0.2495 </r>
       <r>    -5.0280     0.0985     0.2575 </r>
       <r>    -4.9475     0.4468     0.2934 </r>
       <r>    -4.8671     0.7395     0.3529 </r>
       <r>    -4.7866     0.6779     0.4075 </r>
       <r>    -4.7061     0.3285     0.4339 </r>
       <r>    -4.6256     0.0416     0.4373 </r>
       <r>    -4.5451     0.0634     0.4424 </r>
       <r>    -4.4646     0.3943     0.4741 </r>
       <r>    -4.3842     0.8026     0.5387 </r>
       <r>    -4.3037     0.9216     0.6129 </r>
       <r>    -4.2232     0.6122     0.6621 </r>
       <r>    -4.1427     0.2159     0.6795 </r>
       <r>    -4.0622     0.2495     0.6996 </r>
       <r>    -3.9817     0.8367     0.7670 </r>
       <r>    -3.9012     1.4986     0.8876 </r>
       <r>    -3.8208     1.6801     1.0228 </r>
       <r>    -3.7403     1.3804     1.1339 </r>
       <r>    -3.6598     0.9192     1.2079 </r>
       <r>    -3.5793     0.4597     1.2449 </r>
       <r>    -3.4988     0.0964     1.2526 </r>
       <r>    -3.4183    -0.0293     1.2503 </r>
       <r>    -3.3378     0.1515     1.2625 </r>
       <r>    -3.2574     0.5154     1.3040 </r>
       <r>    -3.1769     0.7329     1.3630 </r>
       <r>    -3.0964     0.5821     1.4098 </r>
       <r>    -3.0159     0.2919     1.4333 </r>
       <r>    -2.9354     0.2856     1.4563 </r>
       <r>    -2.8549     0.6813     1.5111 </r>
       <r>    -2.7745     1.2709     1.6134 </r>
       <r>    -2.6940     1.7319     1.7528 </r>
       <r>    -2.6135     1.7095     1.8904 </r>
       <r>    -2.5330     1.1222     1.9807 </r>
       <r>    -2.4525     0.3969     2.0127 </r>
       <r>    -2.3720    -0.0106     2.0118 </r>
       <r>    -2.2915    -0.0858     2.0049 </r>
       <r>    -2.2111    -0.0451     2.0013 </r>
       <r>    -2.1306    -0.0130     2.0002 </r>
       <r>    -2.0501    -0.0024     2.0000 </r>
       <r>    -1.9696    -0.0003     2.0000 </r>
       <r>    -1.8891    -0.0000     2.0000 </r>
       <r>    -1.8086    -0.0000     2.0000 </r>
       <r>    -1.7282    -0.0002     2.0000 </r>
       <r>    -1.6477    -0.0015     1.9999 </r>
       <r>    -1.5672    -0.0092     1.9991 </r>
       <r>    -1.4867    -0.0372     1.9961 </r>
       <r>    -1.4062    -0.0909     1.9888 </r>
       <r>    -1.3257    -0.0860     1.9819 </r>
       <r>    -1.2452     0.2146     1.9992 </r>
       <r>    -1.1648     0.9801     2.0780 </r>
       <r>    -1.0843     1.9280     2.2332 </r>
       <r>    -1.0038     2.4851     2.4332 </r>
       <r>    -0.9233     2.4223     2.6282 </r>
       <r>    -0.8428     1.9454     2.7848 </r>
       <r>    -0.7623     1.2866     2.8883 </r>
       <r>    -0.6818     0.6178     2.9380 </r>
       <r>    -0.6014     0.1402     2.9493 </r>
       <r>    -0.5209    -0.0588     2.9446 </r>
       <r>    -0.4404    -0.0890     2.9374 </r>
       <r>    -0.3599    -0.0907     2.9301 </r>
       <r>    -0.2794    -0.0584     2.9254 </r>
       <r>    -0.1989     0.1866     2.9404 </r>
       <r>    -0.1185     0.7937     3.0043 </r>
       <r>    -0.0380     1.5020     3.1252 </r>
       <r>     0.0425     1.6942     3.2616 </r>
       <r>     0.1230     1.1567     3.3547 </r>
       <r>     0.2035     0.4087     3.3876 </r>
       <r>     0.2840    -0.0110     3.3867 </r>
       <r>     0.3645    -0.0868     3.3797 </r>
       <r>     0.4449    -0.0505     3.3756 </r>
       <r>     0.5254    -0.0343     3.3729 </r>
       <r>     0.6059    -0.0428     3.3694 </r>
       <r>     0.6864    -0.0002     3.3694 </r>
       <r>     0.7669     0.2042     3.3858 </r>
       <r>     0.8474     0.5379     3.4291 </r>
       <r>     0.9278     0.7332     3.4881 </r>
       <r>     1.0083     0.6370     3.5394 </r>
       <r>     1.0888     0.5132     3.5807 </r>
       <r>     1.1693     0.6165     3.6303 </r>
       <r>     1.2498     0.7326     3.6893 </r>
       <r>     1.3303     0.5569     3.7341 </r>
       <r>     1.4108     0.1829     3.7488 </r>
       <r>     1.4912    -0.0948     3.7412 </r>
       <r>     1.5717    -0.0583     3.7365 </r>
       <r>     1.6522     0.4839     3.7755 </r>
       <r>     1.7327     1.4606     3.8930 </r>
       <r>     1.8132     2.1884     4.0691 </r>
       <r>     1.8937     1.9687     4.2276 </r>
       <r>     1.9742     1.0306     4.3105 </r>
       <r>     2.0546     0.1891     4.3257 </r>
       <r>     2.1351    -0.1655     4.3124 </r>
       <r>     2.2156    -0.1358     4.3015 </r>
       <r>     2.2961     0.2245     4.3196 </r>
       <r>     2.3766     0.9743     4.3980 </r>
       <r>     2.4571     1.9018     4.5511 </r>
       <r>     2.5375     2.4297     4.7466 </r>
       <r>     2.6180     2.1545     4.9200 </r>
       <r>     2.6985     1.4457     5.0364 </r>
       <r>     2.7790     1.1009     5.1250 </r>
       <r>     2.8595     1.2786     5.2279 </r>
       <r>     2.9400     1.3999     5.3406 </r>
       <r>     3.0205     1.2756     5.4432 </r>
       <r>     3.1009     1.3097     5.5486 </r>
       <r>     3.1814     1.4357     5.6642 </r>
       <r>     3.2619     1.1415     5.7561 </r>
       <r>     3.3424     0.5970     5.8041 </r>
       <r>     3.4229     0.5876     5.8514 </r>
       <r>     3.5034     1.3074     5.9566 </r>
       <r>     3.5838     1.9638     6.1147 </r>
       <r>     3.6643     1.8226     6.2614 </r>
       <r>     3.7448     1.2880     6.3650 </r>
       <r>     3.8253     1.3287     6.4720 </r>
       <r>     3.9058     1.9357     6.6278 </r>
       <r>     3.9863     2.0948     6.7964 </r>
       <r>     4.0668     1.4353     6.9119 </r>
       <r>     4.1472     0.7653     6.9735 </r>
       <r>     4.2277     0.6909     7.0291 </r>
       <r>     4.3082     0.8677     7.0989 </r>
       <r>     4.3887     0.9178     7.1728 </r>
       <r>     4.4692     1.0440     7.2568 </r>
       <r>     4.5497     1.3615     7.3664 </r>
       <r>     4.6302     1.5094     7.4879 </r>
       <r>     4.7106     1.2464     7.5882 </r>
       <r>     4.7911     0.7703     7.6502 </r>
       <r>     4.8716     0.4071     7.6830 </r>
       <r>     4.9521     0.3709     7.7128 </r>
       <r>     5.0326     0.6003     7.7611 </r>
       <r>     5.1131     0.7316     7.8200 </r>
       <r>     5.1935     0.5256     7.8623 </r>
       <r>     5.2740     0.1777     7.8766 </r>
       <r>     5.3545     0.0119     7.8776 </r>
       <r>     5.4350     0.1287     7.8879 </r>
       <r>     5.5155     0.3820     7.9187 </r>
       <r>     5.5960     0.5109     7.9598 </r>
       <r>     5.6765     0.3876     7.9910 </r>
       <r>     5.7569     0.1542     8.0034 </r>
       <r>     5.8374     0.0060     8.0039 </r>
       <r>     5.9179    -0.0271     8.0017 </r>
       <r>     5.9984    -0.0154     8.0004 </r>
       <r>     6.0789    -0.0046     8.0001 </r>
       <r>     6.1594    -0.0012     8.0000 </r>
       <r>     6.2398    -0.0022     7.9998 </r>
       <r>     6.3203    -0.0100     7.9990 </r>
       <r>     6.4008    -0.0291     7.9966 </r>
       <r>     6.4813    -0.0385     7.9936 </r>
       <r>     6.5618     0.0492     7.9975 </r>
       <r>     6.6423     0.3222     8.0234 </r>
       <r>     6.7228     0.6614     8.0767 </r>
       <r>     6.8032     0.7491     8.1370 </r>
       <r>     6.8837     0.4770     8.1754 </r>
       <r>     6.9642     0.1451     8.1870 </r>
       <r>     7.0447     0.1097     8.1959 </r>
       <r>     7.1252     0.4040     8.2284 </r>
       <r>     7.2057     0.7073     8.2853 </r>
       <r>     7.2862     0.6835     8.3403 </r>
       <r>     7.3666     0.3943     8.3721 </r>
       <r>     7.4471     0.1875     8.3872 </r>
       <r>     7.5276     0.2562     8.4078 </r>
       <r>     7.6081     0.5606     8.4529 </r>
       <r>     7.6886     0.9608     8.5302 </r>
       <r>     7.7691     1.2524     8.6310 </r>
       <r>     7.8495     1.3483     8.7395 </r>
       <r>     7.9300     1.4154     8.8535 </r>
       <r>     8.0105     1.5719     8.9800 </r>
       <r>     8.0910     1.7170     9.1182 </r>
       <r>     8.1715     1.8163     9.2643 </r>
       <r>     8.2520     1.8241     9.4112 </r>
       <r>     8.3325     1.4999     9.5319 </r>
       <r>     8.4129     0.9080     9.6050 </r>
       <r>     8.4934     0.6025     9.6535 </r>
       <r>     8.5739     0.9918     9.7333 </r>
       <r>     8.6544     1.9244     9.8882 </r>
       <r>     8.7349     2.7438    10.1090 </r>
       <r>     8.8154     2.6945    10.3259 </r>
       <r>     8.8958     1.7184    10.4642 </r>
       <r>     8.9763     0.5674    10.5098 </r>
       <r>     9.0568    -0.1062    10.5013 </r>
       <r>     9.1373    -0.1902    10.4860 </r>
       <r>     9.2178     0.3198    10.5117 </r>
       <r>     9.2983     1.4272    10.6266 </r>
       <r>     9.3788     2.6866    10.8428 </r>
       <r>     9.4592     3.3227    11.1103 </r>
       <r>     9.5397     3.0384    11.3548 </r>
       <r>     9.6202     2.2368    11.5348 </r>
       <r>     9.7007     1.4304    11.6500 </r>
       <r>     9.7812     0.8563    11.7189 </r>
       <r>     9.8617     0.6113    11.7681 </r>
       <r>     9.9422     0.7555    11.8289 </r>
       <r>    10.0226     1.1996    11.9254 </r>
       <r>    10.1031     1.6726    12.0601 </r>
       <r>    10.1836     1.8457    12.2086 </r>
       <r>    10.2641     1.5934    12.3369 </r>
       <r>    10.3446     1.1218    12.4271 </r>
       <r>    10.4251     0.7496    12.4875 </r>
       <r>    10.5055     0.6795    12.5422 </r>
       <r>    10.5860     0.8293    12.6089 </r>
       <r>    10.6665     0.9253    12.6834 </r>
       <r>    10.7470     0.9879    12.7629 </r>
       <r>    10.8275     1.2334    12.8622 </r>
       <r>    10.9080     1.4721    12.9807 </r>
       <r>    10.9885     1.4500    13.0974 </r>
       <r>    11.0689     1.4338    13.2128 </r>
       <r>    11.1494     1.6623    13.3466 </r>
       <r>    11.2299     1.9219    13.5012 </r>
       <r>    11.3104     1.9550    13.6586 </r>
       <r>    11.3909     1.6001    13.7874 </r>
       <r>    11.4714     0.8654    13.8570 </r>
       <r>    11.5518     0.1759    13.8712 </r>
       <r>    11.6323     0.1035    13.8795 </r>
       <r>    11.7128     0.8270    13.9461 </r>
       <r>    11.7933     1.8138    14.0921 </r>
       <r>    11.8738     2.1484    14.2650 </r>
       <r>    11.9543     1.6497    14.3977 </r>
       <r>    12.0348     1.1802    14.4927 </r>
       <r>    12.1152     1.2893    14.5965 </r>
       <r>    12.1957     1.4260    14.7113 </r>
       <r>    12.2762     1.0236    14.7937 </r>
       <r>    12.3567     0.3714    14.8236 </r>
       <r>    12.4372    -0.0274    14.8214 </r>
       <r>    12.5177    -0.1189    14.8118 </r>
       <r>    12.5982    -0.0526    14.8076 </r>
       <r>    12.6786     0.1615    14.8206 </r>
       <r>    12.7591     0.5100    14.8616 </r>
       <r>    12.8396     0.7393    14.9211 </r>
       <r>    12.9201     0.5874    14.9684 </r>
       <r>    13.0006     0.2177    14.9859 </r>
       <r>    13.0811     0.1541    14.9983 </r>
       <r>    13.1615     0.7591    15.0594 </r>
       <r>    13.2420     1.7361    15.1991 </r>
       <r>    13.3225     2.2122    15.3772 </r>
       <r>    13.4030     1.6954    15.5136 </r>
       <r>    13.4835     0.7195    15.5716 </r>
       <r>    13.5640     0.1022    15.5798 </r>
       <r>    13.6445     0.0279    15.5820 </r>
       <r>    13.7249     0.1565    15.5946 </r>
       <r>    13.8054     0.1743    15.6086 </r>
       <r>    13.8859     0.0687    15.6142 </r>
       <r>    13.9664     0.0805    15.6207 </r>
       <r>    14.0469     0.4454    15.6565 </r>
       <r>    14.1274     1.0595    15.7418 </r>
       <r>    14.2079     1.4319    15.8570 </r>
       <r>    14.2883     1.2012    15.9537 </r>
       <r>    14.3688     0.5971    16.0018 </r>
       <r>    14.4493     0.1150    16.0110 </r>
       <r>    14.5298    -0.0574    16.0064 </r>
       <r>    14.6103    -0.0531    16.0021 </r>
       <r>    14.6908    -0.0205    16.0005 </r>
       <r>    14.7712    -0.0049    16.0001 </r>
       <r>    14.8517    -0.0008    16.0000 </r>
       <r>    14.9322    -0.0001    16.0000 </r>
       <r>    15.0127    -0.0000    16.0000 </r>
       <r>    15.0932    -0.0000    16.0000 </r>
       <r>    15.1737    -0.0000    16.0000 </r>
       <r>    15.2542    -0.0000    16.0000 </r>
       <r>    15.3346    -0.0000    16.0000 </r>
       <r>    15.4151    -0.0000    16.0000 </r>
       <r>    15.4956    -0.0000    16.0000 </r>
       <r>    15.5761     0.0000    16.0000 </r>
       <r>    15.6566     0.0000    16.0000 </r>
       <r>    15.7371     0.0000    16.0000 </r>
       <r>    15.8175     0.0000    16.0000 </r>
       <r>    15.8980     0.0000    16.0000 </r>
       <r>    15.9785     0.0000    16.0000 </r>
       <r>    16.0590     0.0000    16.0000 </r>
       <r>    16.1395     0.0000    16.0000 </r>
       <r>    16.2200     0.0000    16.0000 </r>
      </set>
     </set>
    </array>
   </total>
  </dos>
 </calculation>
 <structure name="finalpos" >
  <crystal>
   <varray name="basis" >
    <v>       0.00000000       2.71500000       2.71500000 </v>
    <v>       2.71500000       0.00000000       2.71500000 </v>
    <v>       2.71500000       2.71500000       0.00000000 </v>
   </varray>
   <i name="volume">     40.02575175 </i>
   <varray name="rec_basis" >
    <v>      -0.18416206       0.18416206       0.18416206 </v>
    <v>       0.18416206      -0.18416206       0.18416206 </v>
    <v>       0.18416206       0.18416206      -0.18416206 </v>
   </varray>
  </crystal>
  <varray name="positions" >
   <v>       0.00000000       0.00000000       0.00000000 </v>
   <v>       0.25000000       0.25000000       0.25000000 </v>
  </varray>
 </structure>
</modeling>
