 vasp.5.3.3.4 18Dez12 (build Jun 09 2015 23:09:51) complex                      
  
 POSCAR found :  1 types and       4 ions
 LDA part: xc-table for Pade appr. of Perdew
 found WAVECAR, reading the header
 WAVECAR: different cutoff or change in lattice found
 POSCAR, INCAR and KPOINTS ok, starting setup
 WARNING: small aliasing (wrap around) errors must be expected
 FFT: planning ...
 reading WAVECAR
 the WAVECAR file was read sucessfully
 initial charge from wavefunction
 entering main loop
       N       E                     dE             d eps       ncg     rms          rms(c)
DAV:   1    -0.193022994066E+02   -0.19302E+02   -0.79587E-04   112   0.795E-01    0.117E-03
DAV:   2    -0.193022994880E+02   -0.81426E-07   -0.66149E-09    64   0.182E-03
   1 F= -.19302299E+02 E0= -.19284268E+02  d E =-.540943E-01
 writing wavefunctions
