   4   4   1   0
  0.2828978E+02  0.4836856E-09  0.4836856E-09  0.4836856E-09  0.5000000E-15
  1.000000000000000E-004
  CAR 
 unknown system                          
      9.77223674     -8.20290128  301      3.04781191      1.00000000
     -8.203  0.0000E+00  0.0000E+00
     -8.143  0.0000E+00  0.0000E+00
     -8.083  0.0000E+00  0.0000E+00
     -8.023  0.0000E+00  0.0000E+00
     -7.963  0.0000E+00  0.0000E+00
     -7.903  0.0000E+00  0.0000E+00
     -7.843  0.0000E+00  0.0000E+00
     -7.783  0.0000E+00  0.0000E+00
     -7.724  0.0000E+00  0.0000E+00
     -7.664  0.0000E+00  0.0000E+00
     -7.604  0.0000E+00  0.0000E+00
     -7.544  0.0000E+00  0.0000E+00
     -7.484  0.0000E+00  0.0000E+00
     -7.424  0.0000E+00  0.0000E+00
     -7.364  0.4425E-02  0.3214E-04
     -7.304  0.6223E-01  0.1695E-02
     -7.244  0.1870E+00  0.8826E-02
     -7.184  0.3786E+00  0.2544E-01
     -7.124  0.6354E+00  0.5553E-01
     -7.064  0.9179E+00  0.1020E+00
     -7.005  0.1212E+01  0.1658E+00
     -6.945  0.1518E+01  0.2475E+00
     -6.885  0.1837E+01  0.3479E+00
     -6.825  0.2190E+01  0.4683E+00
     -6.765  0.2517E+01  0.6099E+00
     -6.705  0.2716E+01  0.7673E+00
     -6.645  0.2784E+01  0.9327E+00
     -6.585  0.2720E+01  0.1098E+01
     -6.525  0.2576E+01  0.1257E+01
     -6.465  0.2383E+01  0.1406E+01
     -6.405  0.2143E+01  0.1542E+01
     -6.345  0.1852E+01  0.1662E+01
     -6.286  0.1493E+01  0.1762E+01
     -6.226  0.1115E+01  0.1840E+01
     -6.166  0.8027E+00  0.1897E+01
     -6.106  0.5576E+00  0.1938E+01
     -6.046  0.3760E+00  0.1965E+01
     -5.986  0.2303E+00  0.1983E+01
     -5.926  0.1201E+00  0.1994E+01
     -5.866  0.4548E-01  0.1999E+01
     -5.806  0.6390E-02  0.2000E+01
     -5.746  0.0000E+00  0.2000E+01
     -5.686  0.0000E+00  0.2000E+01
     -5.626  0.0000E+00  0.2000E+01
     -5.567  0.0000E+00  0.2000E+01
     -5.507  0.0000E+00  0.2000E+01
     -5.447  0.0000E+00  0.2000E+01
     -5.387  0.0000E+00  0.2000E+01
     -5.327  0.0000E+00  0.2000E+01
     -5.267  0.0000E+00  0.2000E+01
     -5.207  0.0000E+00  0.2000E+01
     -5.147  0.0000E+00  0.2000E+01
     -5.087  0.0000E+00  0.2000E+01
     -5.027  0.0000E+00  0.2000E+01
     -4.967  0.0000E+00  0.2000E+01
     -4.907  0.0000E+00  0.2000E+01
     -4.848  0.0000E+00  0.2000E+01
     -4.788  0.0000E+00  0.2000E+01
     -4.728  0.0000E+00  0.2000E+01
     -4.668  0.0000E+00  0.2000E+01
     -4.608  0.0000E+00  0.2000E+01
     -4.548  0.0000E+00  0.2000E+01
     -4.488  0.0000E+00  0.2000E+01
     -4.428  0.0000E+00  0.2000E+01
     -4.368  0.0000E+00  0.2000E+01
     -4.308  0.0000E+00  0.2000E+01
     -4.248  0.5958E-02  0.2000E+01
     -4.188  0.6018E-01  0.2002E+01
     -4.129  0.1709E+00  0.2008E+01
     -4.069  0.3382E+00  0.2023E+01
     -4.009  0.7871E+00  0.2054E+01
     -3.949  0.1363E+01  0.2119E+01
     -3.889  0.1866E+01  0.2216E+01
     -3.829  0.2296E+01  0.2341E+01
     -3.769  0.2523E+01  0.2486E+01
     -3.709  0.2653E+01  0.2641E+01
     -3.649  0.2708E+01  0.2802E+01
     -3.589  0.2705E+01  0.2965E+01
     -3.529  0.2642E+01  0.3125E+01
     -3.469  0.2619E+01  0.3283E+01
     -3.410  0.2596E+01  0.3439E+01
     -3.350  0.2563E+01  0.3594E+01
     -3.290  0.2975E+01  0.3755E+01
     -3.230  0.3223E+01  0.3943E+01
     -3.170  0.2904E+01  0.4130E+01
     -3.110  0.2236E+01  0.4282E+01
     -3.050  0.2225E+01  0.4409E+01
     -2.990  0.2987E+01  0.4565E+01
     -2.930  0.3732E+01  0.4766E+01
     -2.870  0.4438E+01  0.5011E+01
     -2.810  0.4261E+01  0.5291E+01
     -2.750  0.2300E+01  0.5478E+01
     -2.691  0.2913E+01  0.5633E+01
     -2.631  0.2156E+01  0.5839E+01
     -2.571  0.2169E+01  0.5968E+01
     -2.511  0.2185E+01  0.6099E+01
     -2.451  0.2202E+01  0.6230E+01
     -2.391  0.2222E+01  0.6362E+01
     -2.331  0.2245E+01  0.6496E+01
     -2.271  0.2270E+01  0.6632E+01
     -2.211  0.2298E+01  0.6768E+01
     -2.151  0.2326E+01  0.6907E+01
     -2.091  0.2328E+01  0.7047E+01
     -2.031  0.2297E+01  0.7185E+01
     -1.972  0.2232E+01  0.7321E+01
     -1.912  0.2165E+01  0.7452E+01
     -1.852  0.2371E+01  0.7587E+01
     -1.792  0.8019E+01  0.7819E+01
     -1.732  0.8256E+00  0.7980E+01
     -1.672  0.2116E-01  0.8000E+01
     -1.612  0.0000E+00  0.8000E+01
     -1.552  0.0000E+00  0.8000E+01
     -1.492  0.0000E+00  0.8000E+01
     -1.432  0.0000E+00  0.8000E+01
     -1.372  0.0000E+00  0.8000E+01
     -1.312  0.0000E+00  0.8000E+01
     -1.253  0.0000E+00  0.8000E+01
     -1.193  0.0000E+00  0.8000E+01
     -1.133  0.0000E+00  0.8000E+01
     -1.073  0.0000E+00  0.8000E+01
     -1.013  0.0000E+00  0.8000E+01
     -0.953  0.0000E+00  0.8000E+01
     -0.893  0.0000E+00  0.8000E+01
     -0.833  0.0000E+00  0.8000E+01
     -0.773  0.0000E+00  0.8000E+01
     -0.713  0.0000E+00  0.8000E+01
     -0.653  0.0000E+00  0.8000E+01
     -0.593  0.0000E+00  0.8000E+01
     -0.534  0.0000E+00  0.8000E+01
     -0.474  0.0000E+00  0.8000E+01
     -0.414  0.0000E+00  0.8000E+01
     -0.354  0.0000E+00  0.8000E+01
     -0.294  0.0000E+00  0.8000E+01
     -0.234  0.0000E+00  0.8000E+01
     -0.174  0.0000E+00  0.8000E+01
     -0.114  0.2869E-02  0.8000E+01
     -0.054  0.7756E-01  0.8001E+01
      0.006  0.3565E+00  0.8014E+01
      0.066  0.5259E+00  0.8041E+01
      0.126  0.6240E+00  0.8076E+01
      0.185  0.7425E+00  0.8117E+01
      0.245  0.8852E+00  0.8165E+01
      0.305  0.1057E+01  0.8223E+01
      0.365  0.1300E+01  0.8294E+01
      0.425  0.1622E+01  0.8381E+01
      0.485  0.2021E+01  0.8489E+01
      0.545  0.2478E+01  0.8624E+01
      0.605  0.2913E+01  0.8786E+01
      0.665  0.3334E+01  0.8973E+01
      0.725  0.3992E+01  0.9187E+01
      0.785  0.4969E+01  0.9458E+01
      0.845  0.5452E+01  0.9773E+01
      0.905  0.5298E+01  0.1010E+02
      0.964  0.4677E+01  0.1040E+02
      1.024  0.3588E+01  0.1065E+02
      1.084  0.2974E+01  0.1084E+02
      1.144  0.3206E+01  0.1102E+02
      1.204  0.3736E+01  0.1123E+02
      1.264  0.3426E+01  0.1144E+02
      1.324  0.3175E+01  0.1164E+02
      1.384  0.2954E+01  0.1182E+02
      1.444  0.2687E+01  0.1199E+02
      1.504  0.2467E+01  0.1214E+02
      1.564  0.2372E+01  0.1229E+02
      1.624  0.2404E+01  0.1243E+02
      1.683  0.2562E+01  0.1258E+02
      1.743  0.2846E+01  0.1274E+02
      1.803  0.3211E+01  0.1292E+02
      1.863  0.3818E+01  0.1315E+02
      1.923  0.3135E+01  0.1336E+02
      1.983  0.2670E+01  0.1353E+02
      2.043  0.2381E+01  0.1368E+02
      2.103  0.2075E+01  0.1382E+02
      2.163  0.1871E+01  0.1394E+02
      2.223  0.1774E+01  0.1404E+02
      2.283  0.1784E+01  0.1415E+02
      2.343  0.2186E+01  0.1426E+02
      2.402  0.2922E+01  0.1442E+02
      2.462  0.3742E+01  0.1462E+02
      2.522  0.4660E+01  0.1487E+02
      2.582  0.5720E+01  0.1519E+02
      2.642  0.3954E+01  0.1549E+02
      2.702  0.2125E+01  0.1567E+02
      2.762  0.1092E+01  0.1576E+02
      2.822  0.9303E+00  0.1582E+02
      2.882  0.8236E+00  0.1587E+02
      2.942  0.7719E+00  0.1592E+02
      3.002  0.7754E+00  0.1596E+02
      3.062  0.8340E+00  0.1601E+02
      3.121  0.9477E+00  0.1606E+02
      3.181  0.1479E+01  0.1613E+02
      3.241  0.2396E+01  0.1625E+02
      3.301  0.3150E+01  0.1641E+02
      3.361  0.4643E+01  0.1664E+02
      3.421  0.4320E+01  0.1691E+02
      3.481  0.6379E+01  0.1724E+02
      3.541  0.5305E+01  0.1759E+02
      3.601  0.3902E+01  0.1786E+02
      3.661  0.3303E+01  0.1807E+02
      3.721  0.2933E+01  0.1826E+02
      3.781  0.2636E+01  0.1843E+02
      3.840  0.2378E+01  0.1858E+02
      3.900  0.2159E+01  0.1871E+02
      3.960  0.1980E+01  0.1884E+02
      4.020  0.1826E+01  0.1895E+02
      4.080  0.1677E+01  0.1906E+02
      4.140  0.1639E+01  0.1915E+02
      4.200  0.1618E+01  0.1925E+02
      4.260  0.1282E+01  0.1934E+02
      4.320  0.9766E+00  0.1941E+02
      4.380  0.7877E+00  0.1946E+02
      4.440  0.7926E+00  0.1950E+02
      4.500  0.1115E+01  0.1956E+02
      4.559  0.1603E+01  0.1964E+02
      4.619  0.2821E+01  0.1976E+02
      4.679  0.2882E+01  0.1994E+02
      4.739  0.2488E+01  0.2010E+02
      4.799  0.2116E+01  0.2024E+02
      4.859  0.2010E+01  0.2036E+02
      4.919  0.1919E+01  0.2048E+02
      4.979  0.1829E+01  0.2059E+02
      5.039  0.2044E+01  0.2071E+02
      5.099  0.2365E+01  0.2084E+02
      5.159  0.2751E+01  0.2099E+02
      5.219  0.2853E+01  0.2116E+02
      5.278  0.2867E+01  0.2134E+02
      5.338  0.2871E+01  0.2151E+02
      5.398  0.2866E+01  0.2168E+02
      5.458  0.2852E+01  0.2185E+02
      5.518  0.2828E+01  0.2202E+02
      5.578  0.2795E+01  0.2219E+02
      5.638  0.2753E+01  0.2236E+02
      5.698  0.2702E+01  0.2252E+02
      5.758  0.2929E+01  0.2268E+02
      5.818  0.2843E+01  0.2286E+02
      5.878  0.2677E+01  0.2302E+02
      5.938  0.2339E+01  0.2318E+02
      5.997  0.1863E+01  0.2330E+02
      6.057  0.1475E+01  0.2340E+02
      6.117  0.1142E+01  0.2348E+02
      6.177  0.9204E+00  0.2354E+02
      6.237  0.8370E+00  0.2359E+02
      6.297  0.7586E+00  0.2364E+02
      6.357  0.6850E+00  0.2368E+02
      6.417  0.6163E+00  0.2372E+02
      6.477  0.5525E+00  0.2375E+02
      6.537  0.4935E+00  0.2379E+02
      6.597  0.4395E+00  0.2381E+02
      6.657  0.3902E+00  0.2384E+02
      6.716  0.3459E+00  0.2386E+02
      6.776  0.3065E+00  0.2388E+02
      6.836  0.2718E+00  0.2390E+02
      6.896  0.2400E+00  0.2391E+02
      6.956  0.2104E+00  0.2393E+02
      7.016  0.1829E+00  0.2394E+02
      7.076  0.1575E+00  0.2395E+02
      7.136  0.1343E+00  0.2396E+02
      7.196  0.1132E+00  0.2396E+02
      7.256  0.9426E-01  0.2397E+02
      7.316  0.7745E-01  0.2398E+02
      7.376  0.6278E-01  0.2398E+02
      7.435  0.5026E-01  0.2398E+02
      7.495  0.3987E-01  0.2399E+02
      7.555  0.3162E-01  0.2399E+02
      7.615  0.2551E-01  0.2399E+02
      7.675  0.2154E-01  0.2399E+02
      7.735  0.1923E-01  0.2399E+02
      7.795  0.1714E-01  0.2399E+02
      7.855  0.1517E-01  0.2399E+02
      7.915  0.1334E-01  0.2400E+02
      7.975  0.1163E-01  0.2400E+02
      8.035  0.1004E-01  0.2400E+02
      8.095  0.8588E-02  0.2400E+02
      8.154  0.7259E-02  0.2400E+02
      8.214  0.6057E-02  0.2400E+02
      8.274  0.4982E-02  0.2400E+02
      8.334  0.4034E-02  0.2400E+02
      8.394  0.3213E-02  0.2400E+02
      8.454  0.2519E-02  0.2400E+02
      8.514  0.1946E-02  0.2400E+02
      8.574  0.1453E-02  0.2400E+02
      8.634  0.1033E-02  0.2400E+02
      8.694  0.6834E-03  0.2400E+02
      8.754  0.4061E-03  0.2400E+02
      8.814  0.2005E-03  0.2400E+02
      8.873  0.6674E-04  0.2400E+02
      8.933  0.4746E-05  0.2400E+02
      8.993  0.0000E+00  0.2400E+02
      9.053  0.0000E+00  0.2400E+02
      9.113  0.0000E+00  0.2400E+02
      9.173  0.0000E+00  0.2400E+02
      9.233  0.0000E+00  0.2400E+02
      9.293  0.0000E+00  0.2400E+02
      9.353  0.0000E+00  0.2400E+02
      9.413  0.0000E+00  0.2400E+02
      9.473  0.0000E+00  0.2400E+02
      9.533  0.0000E+00  0.2400E+02
      9.592  0.0000E+00  0.2400E+02
      9.652  0.0000E+00  0.2400E+02
      9.712  0.0000E+00  0.2400E+02
      9.772  0.0000E+00  0.2400E+02
      9.77223674     -8.20290128  301      3.04781191      1.00000000
     -8.203  0.0000E+00  0.0000E+00  0.0000E+00  0.0000E+00  0.0000E+00  0.0000E+00  0.0000E+00  0.0000E+00  0.0000E+00
     -8.143  0.0000E+00  0.0000E+00  0.0000E+00  0.0000E+00  0.0000E+00  0.0000E+00  0.0000E+00  0.0000E+00  0.0000E+00
     -8.083  0.0000E+00  0.0000E+00  0.0000E+00  0.0000E+00  0.0000E+00  0.0000E+00  0.0000E+00  0.0000E+00  0.0000E+00
     -8.023  0.0000E+00  0.0000E+00  0.0000E+00  0.0000E+00  0.0000E+00  0.0000E+00  0.0000E+00  0.0000E+00  0.0000E+00
     -7.963  0.0000E+00  0.0000E+00  0.0000E+00  0.0000E+00  0.0000E+00  0.0000E+00  0.0000E+00  0.0000E+00  0.0000E+00
     -7.903  0.0000E+00  0.0000E+00  0.0000E+00  0.0000E+00  0.0000E+00  0.0000E+00  0.0000E+00  0.0000E+00  0.0000E+00
     -7.843  0.0000E+00  0.0000E+00  0.0000E+00  0.0000E+00  0.0000E+00  0.0000E+00  0.0000E+00  0.0000E+00  0.0000E+00
     -7.783  0.0000E+00  0.0000E+00  0.0000E+00  0.0000E+00  0.0000E+00  0.0000E+00  0.0000E+00  0.0000E+00  0.0000E+00
     -7.724  0.0000E+00  0.0000E+00  0.0000E+00  0.0000E+00  0.0000E+00  0.0000E+00  0.0000E+00  0.0000E+00  0.0000E+00
     -7.664  0.0000E+00  0.0000E+00  0.0000E+00  0.0000E+00  0.0000E+00  0.0000E+00  0.0000E+00  0.0000E+00  0.0000E+00
     -7.604  0.0000E+00  0.0000E+00  0.0000E+00  0.0000E+00  0.0000E+00  0.0000E+00  0.0000E+00  0.0000E+00  0.0000E+00
     -7.544  0.0000E+00  0.0000E+00  0.0000E+00  0.0000E+00  0.0000E+00  0.0000E+00  0.0000E+00  0.0000E+00  0.0000E+00
     -7.484  0.0000E+00  0.0000E+00  0.0000E+00  0.0000E+00  0.0000E+00  0.0000E+00  0.0000E+00  0.0000E+00  0.0000E+00
     -7.424  0.0000E+00  0.0000E+00  0.0000E+00  0.0000E+00  0.0000E+00  0.0000E+00  0.0000E+00  0.0000E+00  0.0000E+00
     -7.364  0.3924E-03  0.9913E-05  0.8315E-05  0.1264E-04  0.0000E+00  0.0000E+00  0.0000E+00  0.0000E+00  0.0000E+00
     -7.304  0.5518E-02  0.1394E-03  0.1169E-03  0.1777E-03  0.0000E+00  0.0000E+00  0.0000E+00  0.0000E+00  0.0000E+00
     -7.244  0.1658E-01  0.4188E-03  0.3513E-03  0.5339E-03  0.0000E+00  0.0000E+00  0.0000E+00  0.0000E+00  0.0000E+00
     -7.184  0.3357E-01  0.8482E-03  0.7115E-03  0.1081E-02  0.0000E+00  0.0000E+00  0.0000E+00  0.0000E+00  0.0000E+00
     -7.124  0.5634E-01  0.1484E-02  0.1199E-02  0.1882E-02  0.0000E+00  0.0000E+00  0.0000E+00  0.0000E+00  0.0000E+00
     -7.064  0.8140E-01  0.2299E-02  0.1773E-02  0.2945E-02  0.0000E+00  0.0000E+00  0.0000E+00  0.0000E+00  0.0000E+00
     -7.005  0.1075E+00  0.3173E-02  0.2413E-02  0.4161E-02  0.0000E+00  0.0000E+00  0.0000E+00  0.0000E+00  0.0000E+00
     -6.945  0.1347E+00  0.4108E-02  0.3118E-02  0.5527E-02  0.0000E+00  0.0000E+00  0.0000E+00  0.0000E+00  0.0000E+00
     -6.885  0.1631E+00  0.5106E-02  0.3873E-02  0.7069E-02  0.0000E+00  0.0000E+00  0.0000E+00  0.0000E+00  0.0000E+00
     -6.825  0.1946E+00  0.6336E-02  0.4714E-02  0.8968E-02  0.0000E+00  0.0000E+00  0.0000E+00  0.0000E+00  0.0000E+00
     -6.765  0.2239E+00  0.7606E-02  0.5551E-02  0.1087E-01  0.0000E+00  0.0000E+00  0.0000E+00  0.0000E+00  0.0000E+00
     -6.705  0.2418E+00  0.8510E-02  0.6191E-02  0.1216E-01  0.0000E+00  0.0000E+00  0.0000E+00  0.0000E+00  0.0000E+00
     -6.645  0.2481E+00  0.9047E-02  0.6615E-02  0.1280E-01  0.0000E+00  0.0000E+00  0.0000E+00  0.0000E+00  0.0000E+00
     -6.585  0.2425E+00  0.9237E-02  0.6750E-02  0.1275E-01  0.0000E+00  0.0000E+00  0.0000E+00  0.0000E+00  0.0000E+00
     -6.525  0.2299E+00  0.9213E-02  0.6603E-02  0.1242E-01  0.0000E+00  0.0000E+00  0.0000E+00  0.0000E+00  0.0000E+00
     -6.465  0.2130E+00  0.8931E-02  0.6322E-02  0.1175E-01  0.0000E+00  0.0000E+00  0.0000E+00  0.0000E+00  0.0000E+00
     -6.405  0.1917E+00  0.8390E-02  0.5907E-02  0.1076E-01  0.0000E+00  0.0000E+00  0.0000E+00  0.0000E+00  0.0000E+00
     -6.345  0.1659E+00  0.7563E-02  0.5347E-02  0.9421E-02  0.0000E+00  0.0000E+00  0.0000E+00  0.0000E+00  0.0000E+00
     -6.286  0.1339E+00  0.6264E-02  0.4506E-02  0.7656E-02  0.0000E+00  0.0000E+00  0.0000E+00  0.0000E+00  0.0000E+00
     -6.226  0.1001E+00  0.4755E-02  0.3521E-02  0.5761E-02  0.0000E+00  0.0000E+00  0.0000E+00  0.0000E+00  0.0000E+00
     -6.166  0.7215E-01  0.3509E-02  0.2684E-02  0.4183E-02  0.0000E+00  0.0000E+00  0.0000E+00  0.0000E+00  0.0000E+00
     -6.106  0.5022E-01  0.2533E-02  0.2002E-02  0.2928E-02  0.0000E+00  0.0000E+00  0.0000E+00  0.0000E+00  0.0000E+00
     -6.046  0.3394E-01  0.1781E-02  0.1433E-02  0.1979E-02  0.0000E+00  0.0000E+00  0.0000E+00  0.0000E+00  0.0000E+00
     -5.986  0.2079E-01  0.1091E-02  0.8775E-03  0.1212E-02  0.0000E+00  0.0000E+00  0.0000E+00  0.0000E+00  0.0000E+00
     -5.926  0.1084E-01  0.5690E-03  0.4577E-03  0.6320E-03  0.0000E+00  0.0000E+00  0.0000E+00  0.0000E+00  0.0000E+00
     -5.866  0.4105E-02  0.2154E-03  0.1733E-03  0.2393E-03  0.0000E+00  0.0000E+00  0.0000E+00  0.0000E+00  0.0000E+00
     -5.806  0.5768E-03  0.3027E-04  0.2435E-04  0.3362E-04  0.0000E+00  0.0000E+00  0.0000E+00  0.0000E+00  0.0000E+00
     -5.746  0.0000E+00  0.0000E+00  0.0000E+00  0.0000E+00  0.0000E+00  0.0000E+00  0.0000E+00  0.0000E+00  0.0000E+00
     -5.686  0.0000E+00  0.0000E+00  0.0000E+00  0.0000E+00  0.0000E+00  0.0000E+00  0.0000E+00  0.0000E+00  0.0000E+00
     -5.626  0.0000E+00  0.0000E+00  0.0000E+00  0.0000E+00  0.0000E+00  0.0000E+00  0.0000E+00  0.0000E+00  0.0000E+00
     -5.567  0.0000E+00  0.0000E+00  0.0000E+00  0.0000E+00  0.0000E+00  0.0000E+00  0.0000E+00  0.0000E+00  0.0000E+00
     -5.507  0.0000E+00  0.0000E+00  0.0000E+00  0.0000E+00  0.0000E+00  0.0000E+00  0.0000E+00  0.0000E+00  0.0000E+00
     -5.447  0.0000E+00  0.0000E+00  0.0000E+00  0.0000E+00  0.0000E+00  0.0000E+00  0.0000E+00  0.0000E+00  0.0000E+00
     -5.387  0.0000E+00  0.0000E+00  0.0000E+00  0.0000E+00  0.0000E+00  0.0000E+00  0.0000E+00  0.0000E+00  0.0000E+00
     -5.327  0.0000E+00  0.0000E+00  0.0000E+00  0.0000E+00  0.0000E+00  0.0000E+00  0.0000E+00  0.0000E+00  0.0000E+00
     -5.267  0.0000E+00  0.0000E+00  0.0000E+00  0.0000E+00  0.0000E+00  0.0000E+00  0.0000E+00  0.0000E+00  0.0000E+00
     -5.207  0.0000E+00  0.0000E+00  0.0000E+00  0.0000E+00  0.0000E+00  0.0000E+00  0.0000E+00  0.0000E+00  0.0000E+00
     -5.147  0.0000E+00  0.0000E+00  0.0000E+00  0.0000E+00  0.0000E+00  0.0000E+00  0.0000E+00  0.0000E+00  0.0000E+00
     -5.087  0.0000E+00  0.0000E+00  0.0000E+00  0.0000E+00  0.0000E+00  0.0000E+00  0.0000E+00  0.0000E+00  0.0000E+00
     -5.027  0.0000E+00  0.0000E+00  0.0000E+00  0.0000E+00  0.0000E+00  0.0000E+00  0.0000E+00  0.0000E+00  0.0000E+00
     -4.967  0.0000E+00  0.0000E+00  0.0000E+00  0.0000E+00  0.0000E+00  0.0000E+00  0.0000E+00  0.0000E+00  0.0000E+00
     -4.907  0.0000E+00  0.0000E+00  0.0000E+00  0.0000E+00  0.0000E+00  0.0000E+00  0.0000E+00  0.0000E+00  0.0000E+00
     -4.848  0.0000E+00  0.0000E+00  0.0000E+00  0.0000E+00  0.0000E+00  0.0000E+00  0.0000E+00  0.0000E+00  0.0000E+00
     -4.788  0.0000E+00  0.0000E+00  0.0000E+00  0.0000E+00  0.0000E+00  0.0000E+00  0.0000E+00  0.0000E+00  0.0000E+00
     -4.728  0.0000E+00  0.0000E+00  0.0000E+00  0.0000E+00  0.0000E+00  0.0000E+00  0.0000E+00  0.0000E+00  0.0000E+00
     -4.668  0.0000E+00  0.0000E+00  0.0000E+00  0.0000E+00  0.0000E+00  0.0000E+00  0.0000E+00  0.0000E+00  0.0000E+00
     -4.608  0.0000E+00  0.0000E+00  0.0000E+00  0.0000E+00  0.0000E+00  0.0000E+00  0.0000E+00  0.0000E+00  0.0000E+00
     -4.548  0.0000E+00  0.0000E+00  0.0000E+00  0.0000E+00  0.0000E+00  0.0000E+00  0.0000E+00  0.0000E+00  0.0000E+00
     -4.488  0.0000E+00  0.0000E+00  0.0000E+00  0.0000E+00  0.0000E+00  0.0000E+00  0.0000E+00  0.0000E+00  0.0000E+00
     -4.428  0.0000E+00  0.0000E+00  0.0000E+00  0.0000E+00  0.0000E+00  0.0000E+00  0.0000E+00  0.0000E+00  0.0000E+00
     -4.368  0.0000E+00  0.0000E+00  0.0000E+00  0.0000E+00  0.0000E+00  0.0000E+00  0.0000E+00  0.0000E+00  0.0000E+00
     -4.308  0.0000E+00  0.0000E+00  0.0000E+00  0.0000E+00  0.0000E+00  0.0000E+00  0.0000E+00  0.0000E+00  0.0000E+00
     -4.248  0.6660E-03  0.7926E-05  0.5034E-05  0.4132E-04  0.0000E+00  0.0000E+00  0.0000E+00  0.0000E+00  0.0000E+00
     -4.188  0.6726E-02  0.8005E-04  0.5084E-04  0.4173E-03  0.0000E+00  0.0000E+00  0.0000E+00  0.0000E+00  0.0000E+00
     -4.129  0.1910E-01  0.2274E-03  0.1444E-03  0.1185E-02  0.0000E+00  0.0000E+00  0.0000E+00  0.0000E+00  0.0000E+00
     -4.069  0.3780E-01  0.4499E-03  0.2857E-03  0.2345E-02  0.0000E+00  0.0000E+00  0.0000E+00  0.0000E+00  0.0000E+00
     -4.009  0.8803E-01  0.1055E-02  0.7019E-03  0.5217E-02  0.0000E+00  0.0000E+00  0.0000E+00  0.0000E+00  0.0000E+00
     -3.949  0.1563E+00  0.1823E-02  0.1282E-02  0.8628E-02  0.0000E+00  0.0000E+00  0.0000E+00  0.0000E+00  0.0000E+00
     -3.889  0.2214E+00  0.2481E-02  0.1839E-02  0.1133E-01  0.0000E+00  0.0000E+00  0.0000E+00  0.0000E+00  0.0000E+00
     -3.829  0.2834E+00  0.3028E-02  0.2372E-02  0.1334E-01  0.0000E+00  0.0000E+00  0.0000E+00  0.0000E+00  0.0000E+00
     -3.769  0.3317E+00  0.3274E-02  0.2766E-02  0.1350E-01  0.0000E+00  0.0000E+00  0.0000E+00  0.0000E+00  0.0000E+00
     -3.709  0.3679E+00  0.3418E-02  0.2998E-02  0.1326E-01  0.0000E+00  0.0000E+00  0.0000E+00  0.0000E+00  0.0000E+00
     -3.649  0.3918E+00  0.3589E-02  0.3095E-02  0.1281E-01  0.0000E+00  0.0000E+00  0.0000E+00  0.0000E+00  0.0000E+00
     -3.589  0.4026E+00  0.3920E-02  0.3087E-02  0.1227E-01  0.0000E+00  0.0000E+00  0.0000E+00  0.0000E+00  0.0000E+00
     -3.529  0.4004E+00  0.4411E-02  0.2972E-02  0.1165E-01  0.0000E+00  0.0000E+00  0.0000E+00  0.0000E+00  0.0000E+00
     -3.469  0.3757E+00  0.5821E-02  0.2942E-02  0.1200E-01  0.0000E+00  0.0000E+00  0.0000E+00  0.0000E+00  0.0000E+00
     -3.410  0.3505E+00  0.7110E-02  0.2984E-02  0.1232E-01  0.0000E+00  0.0000E+00  0.0000E+00  0.0000E+00  0.0000E+00
     -3.350  0.3270E+00  0.8156E-02  0.3081E-02  0.1249E-01  0.0000E+00  0.0000E+00  0.0000E+00  0.0000E+00  0.0000E+00
     -3.290  0.3698E+00  0.9718E-02  0.3662E-02  0.1543E-01  0.0000E+00  0.0000E+00  0.0000E+00  0.0000E+00  0.0000E+00
     -3.230  0.3988E+00  0.1087E-01  0.4148E-02  0.1689E-01  0.0000E+00  0.0000E+00  0.0000E+00  0.0000E+00  0.0000E+00
     -3.170  0.3575E+00  0.1101E-01  0.4156E-02  0.1420E-01  0.0000E+00  0.0000E+00  0.0000E+00  0.0000E+00  0.0000E+00
     -3.110  0.2312E+00  0.1042E-01  0.3817E-02  0.1091E-01  0.0000E+00  0.0000E+00  0.0000E+00  0.0000E+00  0.0000E+00
     -3.050  0.1788E+00  0.1219E-01  0.4462E-02  0.1101E-01  0.0000E+00  0.0000E+00  0.0000E+00  0.0000E+00  0.0000E+00
     -2.990  0.2246E+00  0.1708E-01  0.6315E-02  0.1432E-01  0.0000E+00  0.0000E+00  0.0000E+00  0.0000E+00  0.0000E+00
     -2.930  0.2998E+00  0.2133E-01  0.8091E-02  0.1663E-01  0.0000E+00  0.0000E+00  0.0000E+00  0.0000E+00  0.0000E+00
     -2.870  0.3984E+00  0.2494E-01  0.9827E-02  0.1775E-01  0.0000E+00  0.0000E+00  0.0000E+00  0.0000E+00  0.0000E+00
     -2.810  0.4262E+00  0.2137E-01  0.1081E-01  0.1431E-01  0.0000E+00  0.0000E+00  0.0000E+00  0.0000E+00  0.0000E+00
     -2.750  0.1875E+00  0.9285E-02  0.6512E-02  0.6327E-02  0.0000E+00  0.0000E+00  0.0000E+00  0.0000E+00  0.0000E+00
     -2.691  0.2099E+00  0.1165E-01  0.8738E-02  0.6902E-02  0.0000E+00  0.0000E+00  0.0000E+00  0.0000E+00  0.0000E+00
     -2.631  0.1900E+00  0.8289E-02  0.5120E-02  0.5503E-02  0.0000E+00  0.0000E+00  0.0000E+00  0.0000E+00  0.0000E+00
     -2.571  0.1907E+00  0.8057E-02  0.5110E-02  0.5264E-02  0.0000E+00  0.0000E+00  0.0000E+00  0.0000E+00  0.0000E+00
     -2.511  0.1916E+00  0.7826E-02  0.5106E-02  0.5029E-02  0.0000E+00  0.0000E+00  0.0000E+00  0.0000E+00  0.0000E+00
     -2.451  0.1926E+00  0.7598E-02  0.5107E-02  0.4795E-02  0.0000E+00  0.0000E+00  0.0000E+00  0.0000E+00  0.0000E+00
     -2.391  0.1937E+00  0.7372E-02  0.5114E-02  0.4565E-02  0.0000E+00  0.0000E+00  0.0000E+00  0.0000E+00  0.0000E+00
     -2.331  0.1950E+00  0.7149E-02  0.5126E-02  0.4336E-02  0.0000E+00  0.0000E+00  0.0000E+00  0.0000E+00  0.0000E+00
     -2.271  0.1964E+00  0.6927E-02  0.5144E-02  0.4111E-02  0.0000E+00  0.0000E+00  0.0000E+00  0.0000E+00  0.0000E+00
     -2.211  0.1979E+00  0.6708E-02  0.5166E-02  0.3888E-02  0.0000E+00  0.0000E+00  0.0000E+00  0.0000E+00  0.0000E+00
     -2.151  0.1994E+00  0.6489E-02  0.5192E-02  0.3666E-02  0.0000E+00  0.0000E+00  0.0000E+00  0.0000E+00  0.0000E+00
     -2.091  0.1979E+00  0.6244E-02  0.5173E-02  0.3430E-02  0.0000E+00  0.0000E+00  0.0000E+00  0.0000E+00  0.0000E+00
     -2.031  0.1925E+00  0.5965E-02  0.5096E-02  0.3172E-02  0.0000E+00  0.0000E+00  0.0000E+00  0.0000E+00  0.0000E+00
     -1.972  0.1832E+00  0.5651E-02  0.4959E-02  0.2894E-02  0.0000E+00  0.0000E+00  0.0000E+00  0.0000E+00  0.0000E+00
     -1.912  0.1704E+00  0.5362E-02  0.4875E-02  0.2574E-02  0.0000E+00  0.0000E+00  0.0000E+00  0.0000E+00  0.0000E+00
     -1.852  0.1581E+00  0.5599E-02  0.5781E-02  0.2033E-02  0.0000E+00  0.0000E+00  0.0000E+00  0.0000E+00  0.0000E+00
     -1.792  0.6043E+00  0.1093E-01  0.1901E-01  0.1595E-02  0.0000E+00  0.0000E+00  0.0000E+00  0.0000E+00  0.0000E+00
     -1.732  0.6142E-01  0.1125E-02  0.1688E-02  0.2139E-03  0.0000E+00  0.0000E+00  0.0000E+00  0.0000E+00  0.0000E+00
     -1.672  0.1574E-02  0.2884E-04  0.4326E-04  0.5479E-05  0.0000E+00  0.0000E+00  0.0000E+00  0.0000E+00  0.0000E+00
     -1.612  0.0000E+00  0.0000E+00  0.0000E+00  0.0000E+00  0.0000E+00  0.0000E+00  0.0000E+00  0.0000E+00  0.0000E+00
     -1.552  0.0000E+00  0.0000E+00  0.0000E+00  0.0000E+00  0.0000E+00  0.0000E+00  0.0000E+00  0.0000E+00  0.0000E+00
     -1.492  0.0000E+00  0.0000E+00  0.0000E+00  0.0000E+00  0.0000E+00  0.0000E+00  0.0000E+00  0.0000E+00  0.0000E+00
     -1.432  0.0000E+00  0.0000E+00  0.0000E+00  0.0000E+00  0.0000E+00  0.0000E+00  0.0000E+00  0.0000E+00  0.0000E+00
     -1.372  0.0000E+00  0.0000E+00  0.0000E+00  0.0000E+00  0.0000E+00  0.0000E+00  0.0000E+00  0.0000E+00  0.0000E+00
     -1.312  0.0000E+00  0.0000E+00  0.0000E+00  0.0000E+00  0.0000E+00  0.0000E+00  0.0000E+00  0.0000E+00  0.0000E+00
     -1.253  0.0000E+00  0.0000E+00  0.0000E+00  0.0000E+00  0.0000E+00  0.0000E+00  0.0000E+00  0.0000E+00  0.0000E+00
     -1.193  0.0000E+00  0.0000E+00  0.0000E+00  0.0000E+00  0.0000E+00  0.0000E+00  0.0000E+00  0.0000E+00  0.0000E+00
     -1.133  0.0000E+00  0.0000E+00  0.0000E+00  0.0000E+00  0.0000E+00  0.0000E+00  0.0000E+00  0.0000E+00  0.0000E+00
     -1.073  0.0000E+00  0.0000E+00  0.0000E+00  0.0000E+00  0.0000E+00  0.0000E+00  0.0000E+00  0.0000E+00  0.0000E+00
     -1.013  0.0000E+00  0.0000E+00  0.0000E+00  0.0000E+00  0.0000E+00  0.0000E+00  0.0000E+00  0.0000E+00  0.0000E+00
     -0.953  0.0000E+00  0.0000E+00  0.0000E+00  0.0000E+00  0.0000E+00  0.0000E+00  0.0000E+00  0.0000E+00  0.0000E+00
     -0.893  0.0000E+00  0.0000E+00  0.0000E+00  0.0000E+00  0.0000E+00  0.0000E+00  0.0000E+00  0.0000E+00  0.0000E+00
     -0.833  0.0000E+00  0.0000E+00  0.0000E+00  0.0000E+00  0.0000E+00  0.0000E+00  0.0000E+00  0.0000E+00  0.0000E+00
     -0.773  0.0000E+00  0.0000E+00  0.0000E+00  0.0000E+00  0.0000E+00  0.0000E+00  0.0000E+00  0.0000E+00  0.0000E+00
     -0.713  0.0000E+00  0.0000E+00  0.0000E+00  0.0000E+00  0.0000E+00  0.0000E+00  0.0000E+00  0.0000E+00  0.0000E+00
     -0.653  0.0000E+00  0.0000E+00  0.0000E+00  0.0000E+00  0.0000E+00  0.0000E+00  0.0000E+00  0.0000E+00  0.0000E+00
     -0.593  0.0000E+00  0.0000E+00  0.0000E+00  0.0000E+00  0.0000E+00  0.0000E+00  0.0000E+00  0.0000E+00  0.0000E+00
     -0.534  0.0000E+00  0.0000E+00  0.0000E+00  0.0000E+00  0.0000E+00  0.0000E+00  0.0000E+00  0.0000E+00  0.0000E+00
     -0.474  0.0000E+00  0.0000E+00  0.0000E+00  0.0000E+00  0.0000E+00  0.0000E+00  0.0000E+00  0.0000E+00  0.0000E+00
     -0.414  0.0000E+00  0.0000E+00  0.0000E+00  0.0000E+00  0.0000E+00  0.0000E+00  0.0000E+00  0.0000E+00  0.0000E+00
     -0.354  0.0000E+00  0.0000E+00  0.0000E+00  0.0000E+00  0.0000E+00  0.0000E+00  0.0000E+00  0.0000E+00  0.0000E+00
     -0.294  0.0000E+00  0.0000E+00  0.0000E+00  0.0000E+00  0.0000E+00  0.0000E+00  0.0000E+00  0.0000E+00  0.0000E+00
     -0.234  0.0000E+00  0.0000E+00  0.0000E+00  0.0000E+00  0.0000E+00  0.0000E+00  0.0000E+00  0.0000E+00  0.0000E+00
     -0.174  0.0000E+00  0.0000E+00  0.0000E+00  0.0000E+00  0.0000E+00  0.0000E+00  0.0000E+00  0.0000E+00  0.0000E+00
     -0.114  0.2392E-04  0.5794E-04  0.1013E-03  0.1992E-04  0.0000E+00  0.0000E+00  0.0000E+00  0.0000E+00  0.0000E+00
     -0.054  0.1113E-02  0.1068E-02  0.1281E-02  0.1469E-02  0.0000E+00  0.0000E+00  0.0000E+00  0.0000E+00  0.0000E+00
      0.006  0.5585E-02  0.4544E-02  0.5126E-02  0.7266E-02  0.0000E+00  0.0000E+00  0.0000E+00  0.0000E+00  0.0000E+00
      0.066  0.8573E-02  0.6644E-02  0.8084E-02  0.1045E-01  0.0000E+00  0.0000E+00  0.0000E+00  0.0000E+00  0.0000E+00
      0.126  0.1057E-01  0.7886E-02  0.1066E-01  0.1183E-01  0.0000E+00  0.0000E+00  0.0000E+00  0.0000E+00  0.0000E+00
      0.185  0.1275E-01  0.9504E-02  0.1406E-01  0.1333E-01  0.0000E+00  0.0000E+00  0.0000E+00  0.0000E+00  0.0000E+00
      0.245  0.1517E-01  0.1155E-01  0.1832E-01  0.1504E-01  0.0000E+00  0.0000E+00  0.0000E+00  0.0000E+00  0.0000E+00
      0.305  0.1807E-01  0.1374E-01  0.2425E-01  0.1670E-01  0.0000E+00  0.0000E+00  0.0000E+00  0.0000E+00  0.0000E+00
      0.365  0.2218E-01  0.1663E-01  0.3307E-01  0.1876E-01  0.0000E+00  0.0000E+00  0.0000E+00  0.0000E+00  0.0000E+00
      0.425  0.2757E-01  0.2056E-01  0.4454E-01  0.2154E-01  0.0000E+00  0.0000E+00  0.0000E+00  0.0000E+00  0.0000E+00
      0.485  0.3422E-01  0.2555E-01  0.5867E-01  0.2502E-01  0.0000E+00  0.0000E+00  0.0000E+00  0.0000E+00  0.0000E+00
      0.545  0.4206E-01  0.3114E-01  0.7486E-01  0.2896E-01  0.0000E+00  0.0000E+00  0.0000E+00  0.0000E+00  0.0000E+00
      0.605  0.5052E-01  0.3568E-01  0.9098E-01  0.3251E-01  0.0000E+00  0.0000E+00  0.0000E+00  0.0000E+00  0.0000E+00
      0.665  0.5897E-01  0.3928E-01  0.1076E+00  0.3598E-01  0.0000E+00  0.0000E+00  0.0000E+00  0.0000E+00  0.0000E+00
      0.725  0.6993E-01  0.4688E-01  0.1345E+00  0.4044E-01  0.0000E+00  0.0000E+00  0.0000E+00  0.0000E+00  0.0000E+00
      0.785  0.8340E-01  0.6313E-01  0.1713E+00  0.4711E-01  0.0000E+00  0.0000E+00  0.0000E+00  0.0000E+00  0.0000E+00
      0.845  0.8709E-01  0.7417E-01  0.1866E+00  0.5272E-01  0.0000E+00  0.0000E+00  0.0000E+00  0.0000E+00  0.0000E+00
      0.905  0.8038E-01  0.7611E-01  0.1766E+00  0.5568E-01  0.0000E+00  0.0000E+00  0.0000E+00  0.0000E+00  0.0000E+00
      0.964  0.6394E-01  0.7516E-01  0.1493E+00  0.5366E-01  0.0000E+00  0.0000E+00  0.0000E+00  0.0000E+00  0.0000E+00
      1.024  0.3666E-01  0.7290E-01  0.1047E+00  0.4572E-01  0.0000E+00  0.0000E+00  0.0000E+00  0.0000E+00  0.0000E+00
      1.084  0.1497E-01  0.7382E-01  0.7979E-01  0.4297E-01  0.0000E+00  0.0000E+00  0.0000E+00  0.0000E+00  0.0000E+00
      1.144  0.1514E-01  0.8065E-01  0.8340E-01  0.4911E-01  0.0000E+00  0.0000E+00  0.0000E+00  0.0000E+00  0.0000E+00