    4    4    1    1
  0.2828978E+02  0.4836856E-09  0.4836856E-09  0.4836856E-09  0.5000000E-15
  1.000000000000000E-004
  CAR 
 unknown system                          
   16   10   12
 
  0.0000000E+00  0.0000000E+00  0.0000000E+00  0.1562500E-01
   1       -7.385850
   2       -1.936950
   3       -1.936908
   4       -1.936908
   5       -0.157058
   6        0.574226
   7        0.574226
   8        3.964074
   9        3.964090
  10        3.964091
  11        8.487095
  12        8.955185
 
  0.2500000E+00  0.0000000E+00  0.0000000E+00  0.9375000E-01
   1       -7.147411
   2       -3.325852
   3       -1.807979
   4       -1.807951
   5        0.271763
   6        0.819121
   7        2.299215
   8        3.155740
   9        3.155750
  10        3.414103
  11        4.415460
  12        5.851807
 
  0.5000000E+00  0.0000000E+00  0.0000000E+00  0.4687500E-01
   1       -6.817105
   2       -4.275882
   3       -1.660541
   4       -1.660513
   5        0.609197
   6        1.167899
   7        2.535475
   8        2.535483
   9        2.639070
  10        3.485029
  11        4.645270
  12        6.178844
 
  0.2500000E+00  0.2500000E+00  0.0000000E+00  0.1875000E+00
   1       -6.912375
   2       -3.161500
   3       -3.072108
   4       -1.774620
   5        0.722853
   6        1.789639
   7        2.020539
   8        2.314375
   9        3.330378
  10        3.568567
  11        4.802112
  12        4.986997
 
  0.5000000E+00  0.2500000E+00  0.0000000E+00  0.1875000E+00
   1       -6.588540
   2       -4.042708
   3       -2.829790
   4       -1.820820
   5        1.035794
   6        1.203181
   7        1.826051
   8        2.745954
   9        3.346426
  10        4.123408
  11        4.600942
  12        5.170553
 
  0.5000000E+00  0.5000000E+00  0.0000000E+00  0.4687500E-01
   1       -6.277117
   2       -3.707101
   3       -3.707080
   4       -2.169735
   5        0.885157
   6        1.339433
   7        2.281113
   8        2.281121
   9        3.547249
  10        4.233404
  11        4.233400
  12        6.055583
 
  0.2500000E+00  0.2500000E+00  0.2500000E+00  0.1250000E+00
   1       -6.681042
   2       -3.022072
   3       -2.897620
   4       -2.897620
   5        1.100990
   6        1.440959
   7        1.440959
   8        2.615996
   9        3.451783
  10        3.451784
  11        5.777420
  12        5.964433
 
  0.5000000E+00  0.2500000E+00  0.2500000E+00  0.1875000E+00
   1       -6.364126
   2       -3.825306
   3       -2.758675
   4       -2.683591
   5        0.508334
   6        0.706913
   7        1.771327
   8        2.520476
   9        3.682711
  10        4.453881
  11        5.727645
  12        5.945496
 
  0.5000000E+00  0.5000000E+00  0.2500000E+00  0.9375000E-01
   1       -6.060256
   2       -3.522554
   3       -3.522532
   4       -2.662358
   5       -0.065407
   6        0.925822
   7        0.925829
   8        2.093620
   9        4.193587
  10        6.116798
  11        6.117030
  12        6.816946
 
  0.5000000E+00  0.5000000E+00  0.5000000E+00  0.1562500E-01
   1       -5.770290
   2       -3.292861
   3       -3.292826
   4       -3.292826
   5        0.080200
   6        0.080208
   7        0.080208
   8        1.305087
   9        6.123663
  10        6.123663
  11        7.693535
  12        7.693600
