Automatically generated mesh
      10
Reciprocal lattice
    0.00000000000000    0.00000000000000    0.00000000000000             1
    0.25000000000000    0.00000000000000    0.00000000000000             6
    0.50000000000000    0.00000000000000    0.00000000000000             3
    0.25000000000000    0.25000000000000    0.00000000000000            12
    0.50000000000000    0.25000000000000    0.00000000000000            12
    0.50000000000000    0.50000000000000    0.00000000000000             3
    0.25000000000000    0.25000000000000    0.25000000000000             8
    0.50000000000000    0.25000000000000    0.25000000000000            12
    0.50000000000000    0.50000000000000    0.25000000000000             6
    0.50000000000000    0.50000000000000    0.50000000000000             1
Tetrahedra
        30    0.00260416666667
        12         1         2         2         4
        12         2         2         4         4
        12         2         4         4         7
        12         2         3         4         5
        12         2         4         4         5
        12         4         4         5         7
        12         3         4         5         5
        24         4         5         5         8
        24         4         5         7         8
        12         4         5         6         7
        12         5         6         7         8
        12         6         7         8         9
        12         5         5         6         8
        12         5         6         8         9
        12         5         7         8         8
        12         5         8         8         9
        12         2         3         4         7
        12         3         4         5         7
        12         3         5         7         8
        12         4         5         6         9
        12         4         5         8         9
        12         4         7         8         9
        12         2         3         5         8
        12         2         4         5         8
        12         2         4         7         8
        12         1         2         4         7
        12         7         8         8         9
        12         8         8         9         9
        12         8         9         9        10
        12         7         8         9        10
