 vasp.5.3.3.4 18Dez12 (build Jun 09 2015 23:09:51) complex                      
  
 executed on     half-orig-serial date 2019.07.19  12:43:11
 serial version


--------------------------------------------------------------------------------------------------------


 INCAR:
 POTCAR:   PAW_PBE Si 05Jan2001                   
 POTCAR:   PAW_PBE Si 05Jan2001                   
   VRHFIN =Si: s2p2                                                             
   LEXCH  = PE                                                                  
   EATOM  =   103.0669 eV,    7.5752 Ry                                         
                                                                                
   TITEL  = PAW_PBE Si 05Jan2001                                                
   LULTRA =        F    use ultrasoft PP ?                                      
   IUNSCR =        1    unscreen: 0-lin 1-nonlin 2-no                           
   RPACOR =    1.500    partial core radius                                     
   POMASS =   28.085; ZVAL   =    4.000    mass and valenz                      
   RCORE  =    1.900    outmost cutoff radius                                   
   RWIGS  =    2.480; RWIGS  =    1.312    wigner-seitz radius (au A)           
   ENMAX  =  245.345; ENMIN  =  184.009 eV                                      
   ICORE  =        2    local potential                                         
   LCOR   =        T    correct aug charges                                     
   LPAW   =        T    paw PP                                                  
   EAUG   =  322.069                                                            
   DEXC   =    -.007                                                            
   RMAX   =    2.944    core radius for proj-oper                               
   RAUG   =    1.300    factor for augmentation sphere                          
   RDEP   =    1.993    radius for radial grids                                 
   QCUT   =   -4.246; QGAM   =    8.493    optimization parameters              
                                                                                
   Description                                                                  
     l     E      TYP  RCUT    TYP  RCUT                                        
     0   .000     23  1.900                                                     
     0   .000     23  1.900                                                     
     1   .000     23  1.900                                                     
     1   .000     23  1.900                                                     
     2   .000      7  1.900                                                     
  local pseudopotential read in
  partial core-charges read in
  atomic valenz-charges read in
  non local Contribution for L=           0  read in
    real space projection operators read in
  non local Contribution for L=           0  read in
    real space projection operators read in
  non local Contribution for L=           1  read in
    real space projection operators read in
  non local Contribution for L=           1  read in
    real space projection operators read in
    PAW grid and wavefunctions read in
 
   number of l-projection  operators is LMAX  =           4
   number of lm-projection operators is LMMAX =           8
 

 ----------------------------------------------------------------------------- 
|                                                                             |
|  ADVICE TO THIS USER RUNNING 'VASP/VAMP'   (HEAR YOUR MASTER'S VOICE ...):  |
|                                                                             |
|      You have a (more or less) 'small supercell' and for smaller cells      |
|      it is recommended  to use the reciprocal-space projection scheme!      |
|      The real space optimization is not  efficient for small cells and it   |
|      is also less accurate ...                                              |
|      Therefore set LREAL=.FALSE. in the  INCAR file                         |
|                                                                             |
 ----------------------------------------------------------------------------- 

 Optimization of the real space projectors (new method)

 maximal supplied QI-value         = 19.84
 optimisation between [QCUT,QGAM] = [ 11.51, 23.22] = [ 37.09,150.92] Ry 
 Optimized for a Real-space Cutoff    1.21 Angstroem

   l    n(q)    QCUT    max X(q) W(low)/X(q) W(high)/X(q)  e(spline) 
   0      8    11.508     8.708    0.18E-04    0.44E-05    0.47E-08
   0      8    11.508   106.241    0.70E-04    0.15E-03    0.51E-07
   1      8    11.508     5.901    0.63E-05    0.23E-04    0.21E-07
   1      8    11.508    73.241    0.15E-03    0.36E-04    0.79E-07
 PAW_PBE Si 05Jan2001                   :
 energy of atom  1       EATOM= -103.0669
 kinetic energy error for atom=    0.0005 (will be added to EATOM!!)
 
 
 POSCAR: Si                                      
  positions in cartesian coordinates
  No initial velocities read in
 exchange correlation table for  LEXCH =        8
   RHO(1)=    0.500       N(1)  =     2000
   RHO(2)=  100.500       N(2)  =     4000
 


--------------------------------------------------------------------------------------------------------


 ion  position               nearest neighbor table
   1  0.000  0.000  0.000-   2 2.74   3 2.74   4 2.74
   2  0.400  0.400  0.000-   1 2.74   3 2.74   4 2.74
   3  0.400  0.000  0.400-   1 2.74   2 2.74   4 2.74
   4  0.000  0.400  0.400-   1 2.74   2 2.74   3 2.74
 
  LATTYP: Found a simple cubic cell.
 ALAT       =     4.8368562500
  
  Lattice vectors:
  
 A1 = (   4.8368562500,   0.0000000000,   0.0000000000)
 A2 = (   0.0000000000,   4.8368562500,   0.0000000000)
 A3 = (   0.0000000000,   0.0000000000,   4.8368562500)


Analysis of symmetry for initial positions (statically):
=====================================================================
 Subroutine PRICEL returns:
 Original cell was already a primitive cell.
 

 Routine SETGRP: Setting up the symmetry group for a 
 simple cubic supercell.


 Subroutine GETGRP returns: Found 24 space group operations
 (whereof  6 operations were pure point group operations)
 out of a pool of 48 trial point group operations.


The static configuration has the point symmetry C_3v.
 The point group associated with its full space group is T_d .


Analysis of symmetry for dynamics (positions and initial velocities):
=====================================================================
 Subroutine PRICEL returns:
 Original cell was already a primitive cell.
 

 Routine SETGRP: Setting up the symmetry group for a 
 simple cubic supercell.


 Subroutine GETGRP returns: Found 24 space group operations
 (whereof  6 operations were pure point group operations)
 out of a pool of 48 trial point group operations.


The dynamic configuration has the point symmetry C_3v.
 The point group associated with its full space group is T_d .


 irot  :   1
 --------------------------------------------------------------------
 isymop:   1   0   0
           0   1   0
           0   0   1

 gtrans:     0.0000000     0.0000000     0.0000000

 ptrans:     0.0000000     0.0000000     0.0000000
 rotmap:
 (   1->   1)  (   2->   2)  (   3->   3)  (   4->   4) 


 irot  :   2
 --------------------------------------------------------------------
 isymop:   0   0   1
           1   0   0
           0   1   0

 gtrans:     0.0000000     0.0000000     0.0000000

 ptrans:     0.0000000     0.0000000     0.0000000
 rotmap:
 (   1->   1)  (   2->   4)  (   3->   2)  (   4->   3) 


 irot  :   3
 --------------------------------------------------------------------
 isymop:   0   1   0
           0   0   1
           1   0   0

 gtrans:     0.0000000     0.0000000     0.0000000

 ptrans:     0.0000000     0.0000000     0.0000000
 rotmap:
 (   1->   1)  (   2->   3)  (   3->   4)  (   4->   2) 


 irot  :   4
 --------------------------------------------------------------------
 isymop:   1   0   0
           0   0   1
           0   1   0

 gtrans:     0.0000000     0.0000000     0.0000000

 ptrans:     0.0000000     0.0000000     0.0000000
 rotmap:
 (   1->   1)  (   2->   3)  (   3->   2)  (   4->   4) 


 irot  :   5
 --------------------------------------------------------------------
 isymop:   0   1   0
           1   0   0
           0   0   1

 gtrans:     0.0000000     0.0000000     0.0000000

 ptrans:     0.0000000     0.0000000     0.0000000
 rotmap:
 (   1->   1)  (   2->   2)  (   3->   4)  (   4->   3) 


 irot  :   6
 --------------------------------------------------------------------
 isymop:   0   0   1
           0   1   0
           1   0   0

 gtrans:     0.0000000     0.0000000     0.0000000

 ptrans:     0.0000000     0.0000000     0.0000000
 rotmap:
 (   1->   1)  (   2->   4)  (   3->   3)  (   4->   2) 


 irot  :   7
 --------------------------------------------------------------------
 isymop:   0   1   0
          -1   0   0
           0   0  -1

 gtrans:     0.0000000     0.4000000     0.4000000

 ptrans:     0.0000000     0.0000000     0.0000000
 rotmap:
 (   1->   4)  (   2->   3)  (   3->   1)  (   4->   2) 


 irot  :   8
 --------------------------------------------------------------------
 isymop:   1   0   0
           0   0  -1
           0  -1   0

 gtrans:     0.0000000     0.4000000     0.4000000

 ptrans:     0.0000000     0.0000000     0.0000000
 rotmap:
 (   1->   4)  (   2->   2)  (   3->   3)  (   4->   1) 


 irot  :   9
 --------------------------------------------------------------------
 isymop:   0   0   1
           0  -1   0
          -1   0   0

 gtrans:     0.0000000     0.4000000     0.4000000

 ptrans:     0.0000000     0.0000000     0.0000000
 rotmap:
 (   1->   4)  (   2->   1)  (   3->   2)  (   4->   3) 


 irot  :  10
 --------------------------------------------------------------------
 isymop:  -1   0   0
           0  -1   0
           0   0   1

 gtrans:     0.4000000     0.4000000     0.0000000

 ptrans:     0.0000000     0.0000000     0.0000000
 rotmap:
 (   1->   2)  (   2->   1)  (   3->   4)  (   4->   3) 


 irot  :  11
 --------------------------------------------------------------------
 isymop:   0   0  -1
          -1   0   0
           0   1   0

 gtrans:     0.4000000     0.4000000     0.0000000

 ptrans:     0.0000000     0.0000000     0.0000000
 rotmap:
 (   1->   2)  (   2->   3)  (   3->   1)  (   4->   4) 


 irot  :  12
 --------------------------------------------------------------------
 isymop:   0  -1   0
           0   0  -1
           1   0   0

 gtrans:     0.4000000     0.4000000     0.0000000

 ptrans:     0.0000000     0.0000000     0.0000000
 rotmap:
 (   1->   2)  (   2->   4)  (   3->   3)  (   4->   1) 


 irot  :  13
 --------------------------------------------------------------------
 isymop:   0  -1   0
           1   0   0
           0   0  -1

 gtrans:     0.4000000     0.0000000     0.4000000

 ptrans:     0.0000000     0.0000000     0.0000000
 rotmap:
 (   1->   3)  (   2->   4)  (   3->   2)  (   4->   1) 


 irot  :  14
 --------------------------------------------------------------------
 isymop:  -1   0   0
           0   0   1
           0  -1   0

 gtrans:     0.4000000     0.0000000     0.4000000

 ptrans:     0.0000000     0.0000000     0.0000000
 rotmap:
 (   1->   3)  (   2->   1)  (   3->   4)  (   4->   2) 


 irot  :  15
 --------------------------------------------------------------------
 isymop:   0   0  -1
           0   1   0
          -1   0   0

 gtrans:     0.4000000     0.0000000     0.4000000

 ptrans:     0.0000000     0.0000000     0.0000000
 rotmap:
 (   1->   3)  (   2->   2)  (   3->   1)  (   4->   4) 


 irot  :  16
 --------------------------------------------------------------------
 isymop:   0   0   1
          -1   0   0
           0  -1   0

 gtrans:     0.0000000     0.4000000     0.4000000

 ptrans:     0.0000000     0.0000000     0.0000000
 rotmap:
 (   1->   4)  (   2->   1)  (   3->   3)  (   4->   2) 


 irot  :  17
 --------------------------------------------------------------------
 isymop:   0   1   0
           0   0  -1
          -1   0   0

 gtrans:     0.0000000     0.4000000     0.4000000

 ptrans:     0.0000000     0.0000000     0.0000000
 rotmap:
 (   1->   4)  (   2->   2)  (   3->   1)  (   4->   3) 


 irot  :  18
 --------------------------------------------------------------------
 isymop:   1   0   0
           0  -1   0
           0   0  -1

 gtrans:     0.0000000     0.4000000     0.4000000

 ptrans:     0.0000000     0.0000000     0.0000000
 rotmap:
 (   1->   4)  (   2->   3)  (   3->   2)  (   4->   1) 


 irot  :  19
 --------------------------------------------------------------------
 isymop:   0   0  -1
           0  -1   0
           1   0   0

 gtrans:     0.4000000     0.4000000     0.0000000

 ptrans:     0.0000000     0.0000000     0.0000000
 rotmap:
 (   1->   2)  (   2->   3)  (   3->   4)  (   4->   1) 


 irot  :  20
 --------------------------------------------------------------------
 isymop:   0  -1   0
          -1   0   0
           0   0   1

 gtrans:     0.4000000     0.4000000     0.0000000

 ptrans:     0.0000000     0.0000000     0.0000000
 rotmap:
 (   1->   2)  (   2->   1)  (   3->   3)  (   4->   4) 


 irot  :  21
 --------------------------------------------------------------------
 isymop:  -1   0   0
           0   0  -1
           0   1   0

 gtrans:     0.4000000     0.4000000     0.0000000

 ptrans:     0.0000000     0.0000000     0.0000000
 rotmap:
 (   1->   2)  (   2->   4)  (   3->   1)  (   4->   3) 


 irot  :  22
 --------------------------------------------------------------------
 isymop:   0  -1   0
           0   0   1
          -1   0   0

 gtrans:     0.4000000     0.0000000     0.4000000

 ptrans:     0.0000000     0.0000000     0.0000000
 rotmap:
 (   1->   3)  (   2->   1)  (   3->   2)  (   4->   4) 


 irot  :  23
 --------------------------------------------------------------------
 isymop:  -1   0   0
           0   1   0
           0   0  -1

 gtrans:     0.4000000     0.0000000     0.4000000

 ptrans:     0.0000000     0.0000000     0.0000000
 rotmap:
 (   1->   3)  (   2->   4)  (   3->   1)  (   4->   2) 


 irot  :  24
 --------------------------------------------------------------------
 isymop:   0   0  -1
           1   0   0
           0  -1   0

 gtrans:     0.4000000     0.0000000     0.4000000

 ptrans:     0.0000000     0.0000000     0.0000000
 rotmap:
 (   1->   3)  (   2->   2)  (   3->   4)  (   4->   1) 
 
 
 KPOINTS: KPOINTS created by Atomic Simulation Env

Automatic generation of k-mesh.
Space group operators:
 irot       det(A)        alpha          n_x          n_y          n_z        tau_x        tau_y        tau_z
    1     1.000000     0.000000     1.000000     0.000000     0.000000     0.000000     0.000000     0.000000
    2     1.000000   120.000000    -0.577350    -0.577350    -0.577350     0.000000     0.000000     0.000000
    3     1.000000   120.000000     0.577350     0.577350     0.577350     0.000000     0.000000     0.000000
    4    -1.000000   180.000000     0.000000    -0.707107     0.707107     0.000000     0.000000     0.000000
    5    -1.000000   180.000000     0.707107    -0.707107     0.000000     0.000000     0.000000     0.000000
    6    -1.000000   180.000000     0.707107     0.000000    -0.707107     0.000000     0.000000     0.000000
    7    -1.000000    90.000000     0.000000     0.000000    -1.000000     0.000000     0.400000     0.400000
    8    -1.000000   180.000000     0.000000     0.707107     0.707107     0.000000     0.400000     0.400000
    9    -1.000000    90.000000     0.000000     1.000000     0.000000     0.000000     0.400000     0.400000
   10     1.000000   180.000000     0.000000     0.000000     1.000000     0.400000     0.400000     0.000000
   11     1.000000   120.000000    -0.577350     0.577350     0.577350     0.400000     0.400000     0.000000
   12     1.000000   120.000000    -0.577350     0.577350    -0.577350     0.400000     0.400000     0.000000
   13    -1.000000    90.000000     0.000000     0.000000     1.000000     0.400000     0.000000     0.400000
   14    -1.000000    90.000000    -1.000000     0.000000     0.000000     0.400000     0.000000     0.400000
   15    -1.000000   180.000000     0.707107     0.000000     0.707107     0.400000     0.000000     0.400000
   16     1.000000   120.000000     0.577350    -0.577350     0.577350     0.000000     0.400000     0.400000
   17     1.000000   120.000000    -0.577350    -0.577350     0.577350     0.000000     0.400000     0.400000
   18     1.000000   180.000000     1.000000     0.000000     0.000000     0.000000     0.400000     0.400000
   19    -1.000000    90.000000     0.000000    -1.000000     0.000000     0.400000     0.400000     0.000000
   20    -1.000000   180.000000     0.707107     0.707107     0.000000     0.400000     0.400000     0.000000
   21    -1.000000    90.000000     1.000000     0.000000     0.000000     0.400000     0.400000     0.000000
   22     1.000000   120.000000     0.577350    -0.577350    -0.577350     0.400000     0.000000     0.400000
   23     1.000000   180.000000     0.000000     1.000000     0.000000     0.400000     0.000000     0.400000
   24     1.000000   120.000000     0.577350     0.577350    -0.577350     0.400000     0.000000     0.400000
 
 Subroutine IBZKPT returns following result:
 ===========================================
 
 Found     10 irreducible k-points:
 
 Following reciprocal coordinates:
            Coordinates               Weight
  0.000000  0.000000  0.000000      1.000000
  0.250000  0.000000  0.000000      6.000000
  0.500000  0.000000  0.000000      3.000000
  0.250000  0.250000  0.000000     12.000000
  0.500000  0.250000  0.000000     12.000000
  0.500000  0.500000  0.000000      3.000000
  0.250000  0.250000  0.250000      8.000000
  0.500000  0.250000  0.250000     12.000000
  0.500000  0.500000  0.250000      6.000000
  0.500000  0.500000  0.500000      1.000000
 
 Following cartesian coordinates:
            Coordinates               Weight
  0.000000  0.000000  0.000000      1.000000
  0.051686  0.000000  0.000000      6.000000
  0.103373  0.000000  0.000000      3.000000
  0.051686  0.051686  0.000000     12.000000
  0.103373  0.051686  0.000000     12.000000
  0.103373  0.103373  0.000000      3.000000
  0.051686  0.051686  0.051686      8.000000
  0.103373  0.051686  0.051686     12.000000
  0.103373  0.103373  0.051686      6.000000
  0.103373  0.103373  0.103373      1.000000
 
 TETIRR: Found     30 inequivalent tetrahedra from      384


--------------------------------------------------------------------------------------------------------




 Dimension of arrays:
   k-points           NKPTS =     10   k-points in BZ     NKDIM =     10   number of bands    NBANDS=     12
   number of dos      NEDOS =    301   number of ions     NIONS =      4
   non local maximal  LDIM  =      4   non local SUM 2l+1 LMDIM =      8
   total plane-waves  NPLWV =  46656
   max r-space proj   IRMAX =   3115   max aug-charges    IRDMAX=  13983
   dimension x,y,z NGX =    36 NGY =   36 NGZ =   36
   dimension x,y,z NGXF=    72 NGYF=   72 NGZF=   72
   support grid    NGXF=    72 NGYF=   72 NGZF=   72
   ions per type =               4
 NGX,Y,Z   is equivalent  to a cutoff of  12.37, 12.37, 12.37 a.u.
 NGXF,Y,Z  is equivalent  to a cutoff of  24.75, 24.75, 24.75 a.u.


 I would recommend the setting:
   dimension x,y,z NGX =    36 NGY =   36 NGZ =   36
 SYSTEM =  unknown system                          
 POSCAR =  Si                                      

 Startparameter for this run:
   NWRITE =      2    write-flag & timer
   PREC   = acc       normal or accurate (medium, high low for compatibility)
   ISTART =      1    job   : 0-new  1-cont  2-samecut
   ICHARG =      0    charge: 1-file 2-atom 10-const
   ISPIN  =      1    spin polarized calculation?
   LNONCOLLINEAR =      F non collinear calculations
   LSORBIT =      F    spin-orbit coupling
   INIWAV =      1    electr: 0-lowe 1-rand  2-diag
   LASPH  =      F    aspherical Exc in radial PAW
   METAGGA=      F    non-selfconsistent MetaGGA calc.

 Electronic Relaxation 1
   ENCUT  =  520.0 eV  38.22 Ry    6.18 a.u.   8.99  8.99  8.99*2*pi/ulx,y,z
   ENINI  =  520.0     initial cutoff
   ENAUG  =  322.1 eV  augmentation charge cutoff
   NELM   =     60;   NELMIN=  2; NELMDL=  0     # of ELM steps 
   EDIFF  = 0.1E-03   stopping-criterion for ELM
   LREAL  =      T    real-space projection
   NLSPLINE    = F    spline interpolate recip. space projectors
   LCOMPAT=      F    compatible to vasp.4.4
   GGA_COMPAT  = T    GGA compatible to vasp.4.4-vasp.4.6
   LMAXPAW     = -100 max onsite density
   LMAXMIX     =    2 max onsite mixed and CHGCAR
   VOSKOWN=      0    Vosko Wilk Nusair interpolation
   ROPT   =   -0.00025
 Ionic relaxation
   EDIFFG = 0.1E-02   stopping-criterion for IOM
   NSW    =      0    number of steps for IOM
   NBLOCK =      1;   KBLOCK =      1    inner block; outer block 
   IBRION =     -1    ionic relax: 0-MD 1-quasi-New 2-CG
   NFREE  =      0    steps in history (QN), initial steepest desc. (CG)
   ISIF   =      0    stress and relaxation
   IWAVPR =      0    prediction:  0-non 1-charg 2-wave 3-comb
   ISYM   =      2    0-nonsym 1-usesym 2-fastsym
   LCORR  =      T    Harris-Foulkes like correction to forces

   POTIM  = 0.5000    time-step for ionic-motion
   TEIN   =    0.0    initial temperature
   TEBEG  =    0.0;   TEEND  =   0.0 temperature during run
   SMASS  =  -3.00    Nose mass-parameter (am)
   estimated Nose-frequenzy (Omega)   =  0.10E-29 period in steps =****** mass=  -0.535E-27a.u.
   SCALEE = 1.0000    scale energy and forces
   NPACO  =    256;   APACO  = 16.0  distance and # of slots for P.C.
   PSTRESS=    0.0 pullay stress

  Mass of Ions in am
   POMASS =  28.09
  Ionic Valenz
   ZVAL   =   4.00
  Atomic Wigner-Seitz radii
   RWIGS  =  -1.00
  virtual crystal weights 
   VCA    =   1.00
   NELECT =      16.0000    total number of electrons
   NUPDOWN=      -1.0000    fix difference up-down

 DOS related values:
   EMIN   =  10.00;   EMAX   =-10.00  energy-range for DOS
   EFERMI =   0.00
   ISMEAR =    -5;   SIGMA  =   0.05  broadening in eV -4-tet -1-fermi 0-gaus

 Electronic relaxation 2 (details)
   IALGO  =     68    algorithm
   LDIAG  =      T    sub-space diagonalisation (order eigenvalues)
   LSUBROT=      T    optimize rotation matrix (better conditioning)
   TURBO    =      0    0=normal 1=particle mesh
   IRESTART =      0    0=no restart 2=restart with 2 vectors
   NREBOOT  =      0    no. of reboots
   NMIN     =      0    reboot dimension
   EREF     =   0.00    reference energy to select bands
   IMIX   =      4    mixing-type and parameters
     AMIX     =   0.40;   BMIX     =  1.00
     AMIX_MAG =   1.60;   BMIX_MAG =  1.00
     AMIN     =   0.10
     WC   =   100.;   INIMIX=   1;  MIXPRE=   1;  MAXMIX= -45

 Intra band minimization:
   WEIMIN = 0.0000     energy-eigenvalue tresh-hold
   EBREAK =  0.21E-05  absolut break condition
   DEPER  =   0.30     relativ break condition  

   TIME   =   0.40     timestep for ELM

  volume/ion in A,a.u.               =      28.29       190.91
  Fermi-wavevector in a.u.,A,eV,Ry     =   0.852874  1.611699  9.896802  0.727394
  Thomas-Fermi vector in A             =   1.969230
 
 Write flags
   LWAVE  =      T    write WAVECAR
   LCHARG =      T    write CHGCAR
   LVTOT  =      F    write LOCPOT, total local potential
   LVHAR  =      F    write LOCPOT, Hartree potential only
   LELF   =      F    write electronic localiz. function (ELF)
   LORBIT =     11    0 simple, 1 ext, 2 COOP (PROOUT)


 Dipole corrections
   LMONO  =      F    monopole corrections only (constant potential shift)
   LDIPOL =      F    correct potential (dipole corrections)
   IDIPOL =      0    1-x, 2-y, 3-z, 4-all directions 
   EPSILON=  1.0000000 bulk dielectric constant

 Exchange correlation treatment:
   GGA     =    PE    GGA type
   LEXCH   =     8    internal setting for exchange type
   VOSKOWN=      0    Vosko Wilk Nusair interpolation
   LHFCALC =     F    Hartree Fock is set to
   LHFONE  =     F    Hartree Fock one center treatment
   AEXX    =    0.0000 exact exchange contribution

 Linear response parameters
   LEPSILON=     F    determine dielectric tensor
   LRPA    =     F    only Hartree local field effects (RPA)
   LNABLA  =     F    use nabla operator in PAW spheres
   LVEL    =     F    velocity operator in full k-point grid
   LINTERFAST=   F  fast interpolation
   KINTER  =     0    interpolate to denser k-point grid
   CSHIFT  =0.1000    complex shift for real part using Kramers Kronig
   OMEGAMAX=  -1.0    maximum frequency
   DEG_THRESHOLD= 0.2000000E-02 threshold for treating states as degnerate
   RTIME   =    0.100 relaxation time in fs

 Orbital magnetization related:
   ORBITALMAG=     F  switch on orbital magnetization
   LCHIMAG   =     F  perturbation theory with respect to B field
   DQ        =  0.001000  dq finite difference perturbation B field



--------------------------------------------------------------------------------------------------------


 Static calculation
 charge density and potential will be updated during run
 non-spin polarized calculation
 RMM-DIIS sequential band-by-band and
  variant of blocked Davidson during initial phase
 perform sub-space diagonalisation
    before iterative eigenvector-optimisation
 modified Broyden-mixing scheme, WC =      100.0
 initial mixing is a Kerker type mixing with AMIX =  0.4000 and BMIX =      1.0000
 Hartree-type preconditioning will be used
 using additional bands            4
 real space projection scheme for non local part
 use partial core corrections
 calculate Harris-corrections to forces 
   (improved forces if not selfconsistent)
 use gradient corrections 
 use of overlap-Matrix (Vanderbilt PP)
 Fermi weights with tetrahedron method with Bloechl corrections


--------------------------------------------------------------------------------------------------------


  energy-cutoff  :      520.00
  volume of cell :      113.16
      direct lattice vectors                 reciprocal lattice vectors
     4.836856250  0.000000000  0.000000000     0.206745859  0.000000000  0.000000000
     0.000000000  4.836856250  0.000000000     0.000000000  0.206745859  0.000000000
     0.000000000  0.000000000  4.836856250     0.000000000  0.000000000  0.206745859

  length of vectors
     4.836856250  4.836856250  4.836856250     0.206745859  0.206745859  0.206745859


 
 old parameters found on file WAVECAR:
  energy-cutoff  :      520.00
  volume of cell :      106.16
      direct lattice vectors                 reciprocal lattice vectors
     4.735027697  0.000000000  0.000000000     0.211192006  0.000000000  0.000000000
     0.000000000  4.735027697  0.000000000     0.000000000  0.211192006  0.000000000
     0.000000000  0.000000000  4.735027697     0.000000000  0.000000000  0.211192006

  length of vectors

 
 k-points in units of 2pi/SCALE and weight: KPOINTS created by Atomic Simulation Env
   0.00000000  0.00000000  0.00000000       0.016
   0.05168646  0.00000000  0.00000000       0.094
   0.10337293  0.00000000  0.00000000       0.047
   0.05168646  0.05168646  0.00000000       0.188
   0.10337293  0.05168646  0.00000000       0.188
   0.10337293  0.10337293  0.00000000       0.047
   0.05168646  0.05168646  0.05168646       0.125
   0.10337293  0.05168646  0.05168646       0.188
   0.10337293  0.10337293  0.05168646       0.094
   0.10337293  0.10337293  0.10337293       0.016
 
 k-points in reciprocal lattice and weights: KPOINTS created by Atomic Simulation Env
   0.00000000  0.00000000  0.00000000       0.016
   0.25000000  0.00000000  0.00000000       0.094
   0.50000000  0.00000000  0.00000000       0.047
   0.25000000  0.25000000  0.00000000       0.188
   0.50000000  0.25000000  0.00000000       0.188
   0.50000000  0.50000000  0.00000000       0.047
   0.25000000  0.25000000  0.25000000       0.125
   0.50000000  0.25000000  0.25000000       0.188
   0.50000000  0.50000000  0.25000000       0.094
   0.50000000  0.50000000  0.50000000       0.016
 
 position of ions in fractional coordinates (direct lattice) 
   0.00000000  0.00000000  0.00000000
   0.40000000  0.40000000  0.00000000
   0.40000000  0.00000000  0.40000000
   0.00000000  0.40000000  0.40000000
 
 position of ions in cartesian coordinates  (Angst):
   0.00000000  0.00000000  0.00000000
   1.93474250  1.93474250  0.00000000
   1.93474250  0.00000000  1.93474250
   0.00000000  1.93474250  1.93474250
 


--------------------------------------------------------------------------------------------------------


 k-point  1 :   0.0000 0.0000 0.0000  plane waves:    2969
 k-point  2 :   0.2500 0.0000 0.0000  plane waves:    3042
 k-point  3 :   0.5000 0.0000 0.0000  plane waves:    3026
 k-point  4 :   0.2500 0.2500 0.0000  plane waves:    3031
 k-point  5 :   0.5000 0.2500 0.0000  plane waves:    3040
 k-point  6 :   0.5000 0.5000 0.0000  plane waves:    3048
 k-point  7 :   0.2500 0.2500 0.2500  plane waves:    3058
 k-point  8 :   0.5000 0.2500 0.2500  plane waves:    3078
 k-point  9 :   0.5000 0.5000 0.2500  plane waves:    3060
 k-point 10 :   0.5000 0.5000 0.5000  plane waves:    3112

 maximum number of plane-waves:      3112
 maximum index in each direction: 
   IXMAX=    8   IYMAX=    8   IZMAX=    8
   IXMIN=   -9   IYMIN=   -9   IZMIN=   -9

 NGX is ok and might be reduce to  36
 NGY is ok and might be reduce to  36
 NGZ is ok and might be reduce to  36

 total amount of memory used by VASP on root node    57224. kBytes
========================================================================

   base      :      30000. kBytes
   nonlr-proj:       1042. kBytes
   grid      :      20134. kBytes
   one-center:         12. kBytes
   wavefun   :       6036. kBytes
 
 Broyden mixing: mesh for mixing (old mesh)
   NGX = 17   NGY = 17   NGZ = 17
  (NGX  = 72   NGY  = 72   NGZ  = 72)
  gives a total of   4913 points

 charge density for first step will be calculated from the start-wavefunctions


--------------------------------------------------------------------------------------------------------


 Maximum index for non-local projection operator         2968
 Maximum index for augmentation-charges        13373 (set IRDMAX)


--------------------------------------------------------------------------------------------------------


 initial charge from wavefunction
 First call to EWALD:  gamma=   0.366
 Maximum number of real-space cells 3x 3x 3
 Maximum number of reciprocal cells 3x 3x 3

    FEWALD:  cpu time    0.00: real time    0.00


----------------------------------------- Iteration    1(   1)  ---------------------------------------


    POTLOK:  cpu time    0.25: real time    0.25
    SETDIJ:  cpu time    0.01: real time    0.01
     EDDAV:  cpu time    0.71: real time    0.71
 BZINTS: Fermi energy:  2.699232; 16.000000 electrons
         Band energy: -24.594690;  BLOECHL correction: -0.041584
       DOS:  cpu time    0.00: real time    0.00
    CHARGE:  cpu time    0.07: real time    0.07
    MIXING:  cpu time    0.01: real time    0.01
    --------------------------------------------
      LOOP:  cpu time    1.04: real time    1.05

 eigenvalue-minimisations  :   240
 total energy-change (2. order) :-0.1705438E+02  (-0.8879517E+00)
 number of electron      16.0000003 magnetization 
 augmentation part       -1.0824353 magnetization 

 Broyden mixing:
  rms(total) = 0.20168E+00    rms(broyden)= 0.20168E+00
  rms(prec ) = 0.79478E+00
  weight for this iteration     100.00

 Free energy of the ion-electron system (eV)
  ---------------------------------------------------
  alpha Z        PSCENC =         4.75975139
  Ewald energy   TEWEN  =      -410.62143243
  -1/2 Hartree   DENC   =       -29.19526448
  -exchange  EXHF       =         0.00000000
  -V(xc)+E(xc)   XCENC  =       -40.30266905
  PAW double counting   =       126.27249454      -55.63797846
  entropy T*S    EENTRO =         0.00000000
  eigenvalues    EBANDS =       -24.59468981
  atomic energy  EATOM  =       412.26540547
  ---------------------------------------------------
  free energy    TOTEN  =       -17.05438283 eV

  energy without entropy =      -17.05438283  energy(sigma->0) =      -17.05438283


--------------------------------------------------------------------------------------------------------




----------------------------------------- Iteration    1(   2)  ---------------------------------------


    POTLOK:  cpu time    0.17: real time    0.17
    SETDIJ:  cpu time    0.01: real time    0.01
    EDDIAG:  cpu time    0.11: real time    0.11
  RMM-DIIS:  cpu time    0.54: real time    0.54
    ORTHCH:  cpu time    0.00: real time    0.00
 BZINTS: Fermi energy:  2.883089; 16.000000 electrons
         Band energy: -21.115542;  BLOECHL correction: -0.048701
       DOS:  cpu time    0.00: real time    0.00
    CHARGE:  cpu time    0.07: real time    0.07
    MIXING:  cpu time    0.01: real time    0.01
    --------------------------------------------
      LOOP:  cpu time    0.92: real time    0.92

 eigenvalue-minimisations  :   242
 total energy-change (2. order) : 0.4542463E+00  (-0.1084390E+00)
 number of electron      16.0000003 magnetization 
 augmentation part       -1.0791127 magnetization 

 Broyden mixing:
  rms(total) = 0.88789E-01    rms(broyden)= 0.88789E-01
  rms(prec ) = 0.34147E+00
  weight for this iteration     100.00

 eigenvalues of (default mixing * dielectric matrix)
  average eigenvalue GAMMA=   1.6486
  1.6486

 Free energy of the ion-electron system (eV)
  ---------------------------------------------------
  alpha Z        PSCENC =         4.75975139
  Ewald energy   TEWEN  =      -410.62143243
  -1/2 Hartree   DENC   =       -32.26289170
  -exchange  EXHF       =         0.00000000
  -V(xc)+E(xc)   XCENC  =       -40.15816244
  PAW double counting   =       128.94744322      -58.41470852
  entropy T*S    EENTRO =         0.00000000
  eigenvalues    EBANDS =       -21.11554157
  atomic energy  EATOM  =       412.26540547
  ---------------------------------------------------
  free energy    TOTEN  =       -16.60013658 eV

  energy without entropy =      -16.60013658  energy(sigma->0) =      -16.60013658


--------------------------------------------------------------------------------------------------------




----------------------------------------- Iteration    1(   3)  ---------------------------------------


    POTLOK:  cpu time    0.26: real time    0.26
    SETDIJ:  cpu time    0.01: real time    0.01
    EDDIAG:  cpu time    0.14: real time    0.14
  RMM-DIIS:  cpu time    0.45: real time    0.45
    ORTHCH:  cpu time    0.00: real time    0.00
 BZINTS: Fermi energy:  3.033284; 16.000000 electrons
         Band energy: -18.446909;  BLOECHL correction: -0.054084
       DOS:  cpu time    0.00: real time    0.00
    CHARGE:  cpu time    0.05: real time    0.05
    MIXING:  cpu time    0.00: real time    0.00
    --------------------------------------------
      LOOP:  cpu time    0.91: real time    0.91

 eigenvalue-minimisations  :   242
 total energy-change (2. order) : 0.9243550E-01  (-0.5489266E-01)
 number of electron      16.0000003 magnetization 
 augmentation part       -1.0647212 magnetization 

 Broyden mixing:
  rms(total) = 0.25167E-01    rms(broyden)= 0.25167E-01
  rms(prec ) = 0.63051E-01
  weight for this iteration     100.00

 eigenvalues of (default mixing * dielectric matrix)
  average eigenvalue GAMMA=   1.4142
  1.4142  1.4142

 Free energy of the ion-electron system (eV)
  ---------------------------------------------------
  alpha Z        PSCENC =         4.75975139
  Ewald energy   TEWEN  =      -410.62143243
  -1/2 Hartree   DENC   =       -34.86985415
  -exchange  EXHF       =         0.00000000
  -V(xc)+E(xc)   XCENC  =       -40.03136271
  PAW double counting   =       131.33904722      -60.90234655
  entropy T*S    EENTRO =         0.00000000
  eigenvalues    EBANDS =       -18.44690933
  atomic energy  EATOM  =       412.26540547
  ---------------------------------------------------
  free energy    TOTEN  =       -16.50770108 eV

  energy without entropy =      -16.50770108  energy(sigma->0) =      -16.50770108


--------------------------------------------------------------------------------------------------------




----------------------------------------- Iteration    1(   4)  ---------------------------------------


    POTLOK:  cpu time    0.17: real time    0.17
    SETDIJ:  cpu time    0.01: real time    0.01
    EDDIAG:  cpu time    0.10: real time    0.10
  RMM-DIIS:  cpu time    0.40: real time    0.40
    ORTHCH:  cpu time    0.00: real time    0.00
 BZINTS: Fermi energy:  3.034337; 16.000000 electrons
         Band energy: -18.432705;  BLOECHL correction: -0.053306
       DOS:  cpu time    0.00: real time    0.00
    CHARGE:  cpu time    0.06: real time    0.06
    MIXING:  cpu time    0.00: real time    0.00
    --------------------------------------------
      LOOP:  cpu time    0.75: real time    0.75

 eigenvalue-minimisations  :   260
 total energy-change (2. order) : 0.1169690E-02  (-0.1230452E-02)
 number of electron      16.0000003 magnetization 
 augmentation part       -1.0629436 magnetization 

 Broyden mixing:
  rms(total) = 0.10829E-01    rms(broyden)= 0.10829E-01
  rms(prec ) = 0.27264E-01
  weight for this iteration     100.00

 eigenvalues of (default mixing * dielectric matrix)
  average eigenvalue GAMMA=   1.7759
  1.0772  1.7247  2.5258

 Free energy of the ion-electron system (eV)
  ---------------------------------------------------
  alpha Z        PSCENC =         4.75975139
  Ewald energy   TEWEN  =      -410.62143243
  -1/2 Hartree   DENC   =       -34.89123037
  -exchange  EXHF       =         0.00000000
  -V(xc)+E(xc)   XCENC  =       -40.02121801
  PAW double counting   =       131.34931976      -60.91442250
  entropy T*S    EENTRO =         0.00000000
  eigenvalues    EBANDS =       -18.43270469
  atomic energy  EATOM  =       412.26540547
  ---------------------------------------------------
  free energy    TOTEN  =       -16.50653139 eV

  energy without entropy =      -16.50653139  energy(sigma->0) =      -16.50653139


--------------------------------------------------------------------------------------------------------




----------------------------------------- Iteration    1(   5)  ---------------------------------------


    POTLOK:  cpu time    0.17: real time    0.17
    SETDIJ:  cpu time    0.01: real time    0.01
    EDDIAG:  cpu time    0.10: real time    0.10
  RMM-DIIS:  cpu time    0.40: real time    0.40
    ORTHCH:  cpu time    0.00: real time    0.00
 BZINTS: Fermi energy:  3.045735; 16.000000 electrons
         Band energy: -18.241358;  BLOECHL correction: -0.053052
       DOS:  cpu time    0.00: real time    0.00
    CHARGE:  cpu time    0.05: real time    0.05
    MIXING:  cpu time    0.00: real time    0.00
    --------------------------------------------
      LOOP:  cpu time    0.74: real time    0.74

 eigenvalue-minimisations  :   262
 total energy-change (2. order) : 0.9096534E-04  (-0.2102232E-03)
 number of electron      16.0000003 magnetization 
 augmentation part       -1.0610424 magnetization 

 Broyden mixing:
  rms(total) = 0.30918E-02    rms(broyden)= 0.30918E-02
  rms(prec ) = 0.11216E-01
  weight for this iteration     100.00

 eigenvalues of (default mixing * dielectric matrix)
  average eigenvalue GAMMA=   1.5709
  2.4681  1.4452  1.4452  0.9249

 Free energy of the ion-electron system (eV)
  ---------------------------------------------------
  alpha Z        PSCENC =         4.75975139
  Ewald energy   TEWEN  =      -410.62143243
  -1/2 Hartree   DENC   =       -35.09572317
  -exchange  EXHF       =         0.00000000
  -V(xc)+E(xc)   XCENC  =       -40.00290744
  PAW double counting   =       131.46680945      -61.03698584
  entropy T*S    EENTRO =         0.00000000
  eigenvalues    EBANDS =       -18.24135785
  atomic energy  EATOM  =       412.26540547
  ---------------------------------------------------
  free energy    TOTEN  =       -16.50644042 eV

  energy without entropy =      -16.50644042  energy(sigma->0) =      -16.50644042


--------------------------------------------------------------------------------------------------------




----------------------------------------- Iteration    1(   6)  ---------------------------------------


    POTLOK:  cpu time    0.17: real time    0.17
    SETDIJ:  cpu time    0.01: real time    0.01
    EDDIAG:  cpu time    0.10: real time    0.10
  RMM-DIIS:  cpu time    0.34: real time    0.34
    ORTHCH:  cpu time    0.00: real time    0.00
 BZINTS: Fermi energy:  3.047812; 16.000000 electrons
         Band energy: -18.204273;  BLOECHL correction: -0.053171
       DOS:  cpu time    0.00: real time    0.00
    --------------------------------------------
      LOOP:  cpu time    0.62: real time    0.63

 eigenvalue-minimisations  :   214
 total energy-change (2. order) : 0.7084887E-04  (-0.3353370E-04)
 number of electron      16.0000003 magnetization 
 augmentation part       -1.0610424 magnetization 

 Free energy of the ion-electron system (eV)
  ---------------------------------------------------
  alpha Z        PSCENC =         4.75975139
  Ewald energy   TEWEN  =      -410.62143243
  -1/2 Hartree   DENC   =       -35.13463670
  -exchange  EXHF       =         0.00000000
  -V(xc)+E(xc)   XCENC  =       -40.00138379
  PAW double counting   =       131.46458449      -61.03438521
  entropy T*S    EENTRO =         0.00000000
  eigenvalues    EBANDS =       -18.20427279
  atomic energy  EATOM  =       412.26540547
  ---------------------------------------------------
  free energy    TOTEN  =       -16.50636957 eV

  energy without entropy =      -16.50636957  energy(sigma->0) =      -16.50636957


--------------------------------------------------------------------------------------------------------




 average (electrostatic) potential at core
  the test charge radii are     0.9892
  (the norm of the test charge is              1.0000)
       1 -86.8724       2 -86.8724       3 -86.8724       4 -86.8724
 
 
 
 E-fermi :   3.0478     XC(G=0):  -8.3996     alpha+bet : -8.4782


 k-point   1 :       0.0000    0.0000    0.0000
  band No.  band energies     occupation 
      1      -7.3858      2.00000
      2      -1.9370      2.00000
      3      -1.9369      2.00000
      4      -1.9369      2.00000
      5      -0.1571      2.00000
      6       0.5742      2.00000
      7       0.5742      2.00000
      8       3.9641     -0.49673
      9       3.9641      0.00000
     10       3.9641      0.00000
     11       8.4871      0.00000
     12       8.9552      0.00000

 k-point   2 :       0.2500    0.0000    0.0000
  band No.  band energies     occupation 
      1      -7.1474      2.00000
      2      -3.3259      2.00000
      3      -1.8080      2.00000
      4      -1.8080      2.00000
      5       0.2718      2.00000
      6       0.8191      2.00000
      7       2.2992      2.00000
      8       3.1557      1.54732
      9       3.1557      0.08833
     10       3.4141      0.00000
     11       4.4155      0.00000
     12       5.8518      0.00000

 k-point   3 :       0.5000    0.0000    0.0000
  band No.  band energies     occupation 
      1      -6.8171      2.00000
      2      -4.2759      2.00000
      3      -1.6605      2.00000
      4      -1.6605      2.00000
      5       0.6092      2.00000
      6       1.1679      2.00000
      7       2.5355      2.00000
      8       2.5355      2.01014
      9       2.6391      1.46910
     10       3.4850      0.00000
     11       4.6453      0.00000
     12       6.1788      0.00000

 k-point   4 :       0.2500    0.2500    0.0000
  band No.  band energies     occupation 
      1      -6.9124      2.00000
      2      -3.1615      2.00000
      3      -3.0721      2.00000
      4      -1.7746      2.00000
      5       0.7229      2.00000
      6       1.7896      2.00000
      7       2.0205      2.00000
      8       2.3144      2.04846
      9       3.3304      0.00456
     10       3.5686      0.00000
     11       4.8021      0.00000
     12       4.9870      0.00000

 k-point   5 :       0.5000    0.2500    0.0000
  band No.  band energies     occupation 
      1      -6.5885      2.00000
      2      -4.0427      2.00000
      3      -2.8298      2.00000
      4      -1.8208      2.00000
      5       1.0358      2.00000
      6       1.2032      2.00000
      7       1.8261      2.00000
      8       2.7460      1.99833
      9       3.3464      0.00733
     10       4.1234      0.00000
     11       4.6009      0.00000
     12       5.1706      0.00000

 k-point   6 :       0.5000    0.5000    0.0000
  band No.  band energies     occupation 
      1      -6.2771      2.00000
      2      -3.7071      2.00000
      3      -3.7071      2.00000
      4      -2.1697      2.00000
      5       0.8852      2.00000
      6       1.3394      2.00000
      7       2.2811      2.00000
      8       2.2811      2.00000
      9       3.5472      0.00000
     10       4.2334      0.00000
     11       4.2334      0.00000
     12       6.0556      0.00000

 k-point   7 :       0.2500    0.2500    0.2500
  band No.  band energies     occupation 
      1      -6.6810      2.00000
      2      -3.0221      2.00000
      3      -2.8976      2.00000
      4      -2.8976      2.00000
      5       1.1010      2.00000
      6       1.4410      2.00000
      7       1.4410      2.00000
      8       2.6160      1.98971
      9       3.4518     -0.01736
     10       3.4518      0.00000
     11       5.7774      0.00000
     12       5.9644      0.00000

 k-point   8 :       0.5000    0.2500    0.2500
  band No.  band energies     occupation 
      1      -6.3641      2.00000
      2      -3.8253      2.00000
      3      -2.7587      2.00000
      4      -2.6836      2.00000
      5       0.5083      2.00000
      6       0.7069      2.00000
      7       1.7713      2.00000
      8       2.5205      2.00273
      9       3.6827     -0.02254
     10       4.4539      0.00000
     11       5.7276      0.00000
     12       5.9455      0.00000

 k-point   9 :       0.5000    0.5000    0.2500
  band No.  band energies     occupation 
      1      -6.0603      2.00000
      2      -3.5226      2.00000
      3      -3.5225      2.00000
      4      -2.6624      2.00000
      5      -0.0654      2.00000
      6       0.9258      2.00000
      7       0.9258      2.00000
      8       2.0936      2.00000
      9       4.1936      0.00000
     10       6.1168      0.00000
     11       6.1170      0.00000
     12       6.8169      0.00000

 k-point  10 :       0.5000    0.5000    0.5000
  band No.  band energies     occupation 
      1      -5.7703      2.00000
      2      -3.2929      2.00000
      3      -3.2928      2.00000
      4      -3.2928      2.00000
      5       0.0802      2.00000
      6       0.0802      2.00000
      7       0.0802      2.00000
      8       1.3051      2.00000
      9       6.1237      0.00000
     10       6.1237      0.00000
     11       7.6935      0.00000
     12       7.6936      0.00000


--------------------------------------------------------------------------------------------------------


 soft charge-density along one line, spin component           1
         0         1         2         3         4         5         6         7         8         9
x    17.0610    0.0000    0.9901   -3.0473    1.5036    1.0924   -0.0196    0.0143   -0.0047   -0.0145
x    -0.0636   -0.0000   -0.0012    0.0037   -0.0007   -0.0005   -0.0022    0.0016    0.0000    0.0001
x    -0.0002   -0.0000   -0.0000    0.0000    0.0000    0.0000    0.0000   -0.0000    0.0000    0.0000
x     0.0000   -0.0000    0.0000   -0.0000    0.0000    0.0000    0.0000    0.0000
y    17.0610    0.0000    0.9901   -3.0473    1.5036    1.0924   -0.0196    0.0143   -0.0047   -0.0145
y    -0.0636   -0.0000   -0.0012    0.0037   -0.0007   -0.0005   -0.0022    0.0016    0.0000    0.0001
y    -0.0002   -0.0000   -0.0000    0.0000    0.0000    0.0000    0.0000   -0.0000    0.0000    0.0000
y     0.0000   -0.0000    0.0000   -0.0000    0.0000    0.0000    0.0000    0.0000
z    17.0610    0.0000    0.9901   -3.0473    1.5036    1.0924   -0.0196    0.0143   -0.0047   -0.0145
z    -0.0636   -0.0000   -0.0012    0.0037   -0.0007   -0.0005   -0.0022    0.0016    0.0000    0.0001
z    -0.0002   -0.0000   -0.0000    0.0000    0.0000    0.0000    0.0000   -0.0000    0.0000    0.0000
z     0.0000   -0.0000    0.0000   -0.0000    0.0000    0.0000    0.0000    0.0000
 total charge-density along one line
x    16.0000    0.0000    0.8992   -2.7675    0.9579    0.6959   -0.3745    0.2721   -0.0472   -0.1453
x    -0.2246   -0.0000   -0.0025    0.0076   -0.0074   -0.0054    0.0014   -0.0010    0.0004    0.0012
x    -0.0006   -0.0000   -0.0001    0.0003   -0.0001   -0.0001    0.0002   -0.0002    0.0000    0.0001
x    -0.0001   -0.0000   -0.0000    0.0000   -0.0000   -0.0000    0.0000   -0.0000    0.0000    0.0000
x    -0.0000   -0.0000   -0.0000    0.0000   -0.0000   -0.0000    0.0000   -0.0000    0.0000    0.0000
x    -0.0000   -0.0000   -0.0000    0.0000   -0.0000    0.0000    0.0000   -0.0000    0.0000    0.0000
x    -0.0000   -0.0000   -0.0000    0.0000   -0.0000    0.0000    0.0000   -0.0000    0.0000    0.0000
x    -0.0000   -0.0000   -0.0000    0.0000
y    16.0000    0.0000    0.8992   -2.7675    0.9579    0.6959   -0.3745    0.2721   -0.0472   -0.1453
y    -0.2246   -0.0000   -0.0025    0.0076   -0.0074   -0.0054    0.0014   -0.0010    0.0004    0.0012
y    -0.0006   -0.0000   -0.0001    0.0003   -0.0001   -0.0001    0.0002   -0.0002    0.0000    0.0001
y    -0.0001   -0.0000   -0.0000    0.0000   -0.0000   -0.0000    0.0000   -0.0000    0.0000    0.0000
y    -0.0000   -0.0000   -0.0000    0.0000   -0.0000   -0.0000    0.0000   -0.0000    0.0000    0.0000
y    -0.0000   -0.0000   -0.0000    0.0000   -0.0000    0.0000    0.0000   -0.0000    0.0000    0.0000
y    -0.0000   -0.0000   -0.0000    0.0000   -0.0000    0.0000    0.0000   -0.0000    0.0000    0.0000
y    -0.0000   -0.0000   -0.0000    0.0000
z    16.0000    0.0000    0.8992   -2.7675    0.9579    0.6959   -0.3745    0.2721   -0.0472   -0.1453
z    -0.2246   -0.0000   -0.0025    0.0076   -0.0074   -0.0054    0.0014   -0.0010    0.0004    0.0012
z    -0.0006   -0.0000   -0.0001    0.0003   -0.0001   -0.0001    0.0002   -0.0002    0.0000    0.0001
z    -0.0001   -0.0000   -0.0000    0.0000   -0.0000   -0.0000    0.0000   -0.0000    0.0000    0.0000
z    -0.0000   -0.0000   -0.0000    0.0000   -0.0000   -0.0000    0.0000   -0.0000    0.0000    0.0000
z    -0.0000   -0.0000   -0.0000    0.0000   -0.0000    0.0000    0.0000   -0.0000    0.0000    0.0000
z    -0.0000   -0.0000   -0.0000    0.0000   -0.0000    0.0000    0.0000   -0.0000    0.0000    0.0000
z    -0.0000   -0.0000   -0.0000    0.0000
 
 pseudopotential strength for first ion, spin component:           1
 18.780   0.002   0.004   0.004   0.004   0.000   0.000   0.000
  0.002   0.006   0.000   0.000   0.000  -0.000  -0.000  -0.000
  0.004   0.000   4.216  -0.001  -0.001  -0.002   0.000   0.000
  0.004   0.000  -0.001   4.216  -0.001   0.000  -0.002   0.000
  0.004   0.000  -0.001  -0.001   4.216   0.000   0.000  -0.002
  0.000  -0.000  -0.002   0.000   0.000   0.005   0.000   0.000
  0.000  -0.000   0.000  -0.002   0.000   0.000   0.005   0.000
  0.000  -0.000   0.000   0.000  -0.002   0.000   0.000   0.005
 total augmentation occupancy for first ion, spin component:           1
  1.944   0.095  -0.111  -0.111  -0.111  -0.012  -0.012  -0.012
  0.095   0.509  -0.218  -0.218  -0.218   0.108   0.108   0.108
 -0.111  -0.218   0.654   0.052   0.052  -0.220  -0.026  -0.026
 -0.111  -0.218   0.052   0.654   0.052  -0.026  -0.220  -0.026
 -0.111  -0.218   0.052   0.052   0.654  -0.026  -0.026  -0.220
 -0.012   0.108  -0.220  -0.026  -0.026   0.108   0.021   0.021
 -0.012   0.108  -0.026  -0.220  -0.026   0.021   0.108   0.021
 -0.012   0.108  -0.026  -0.026  -0.220   0.021   0.021   0.108


------------------------ aborting loop because EDIFF is reached ----------------------------------------


 


 total charge     
 
# of ion     s       p       d       tot
----------------------------------------
  1        0.917   0.595   0.000   1.512
  2        0.913   0.562   0.000   1.475
  3        0.916   0.565   0.000   1.481
  4        0.919   0.583   0.000   1.502
------------------------------------------------
tot        3.664   2.306   0.000   5.970
 
    CHARGE:  cpu time    0.05: real time    0.05
    FORLOC:  cpu time    0.01: real time    0.01
    FORNL :  cpu time    0.20: real time    0.20
    FORCOR:  cpu time    0.16: real time    0.16
    FORHAR:  cpu time    0.03: real time    0.03
    MIXING:  cpu time    0.00: real time    0.00

 VOLUME and BASIS-vectors are now :
 -----------------------------------------------------------------------------
  energy-cutoff  :      520.00
  volume of cell :      113.16
      direct lattice vectors                 reciprocal lattice vectors
     4.836856250  0.000000000  0.000000000     0.206745859  0.000000000  0.000000000
     0.000000000  4.836856250  0.000000000     0.000000000  0.206745859  0.000000000
     0.000000000  0.000000000  4.836856250     0.000000000  0.000000000  0.206745859

  length of vectors
     4.836856250  4.836856250  4.836856250     0.206745859  0.206745859  0.206745859


 FORCES acting on ions
    electron-ion (+dipol)            ewald-force                    non-local-force                 convergence-correction
 -----------------------------------------------------------------------------------------------
   0.175E+02 0.175E+02 0.175E+02   -.193E+02 -.193E+02 -.193E+02   0.215E+01 0.215E+01 0.215E+01   -.141E-01 -.141E-01 -.141E-01
   -.175E+02 -.175E+02 0.175E+02   0.193E+02 0.193E+02 -.193E+02   -.215E+01 -.215E+01 0.215E+01   0.141E-01 0.141E-01 -.141E-01
   -.175E+02 0.175E+02 -.175E+02   0.193E+02 -.193E+02 0.193E+02   -.215E+01 0.215E+01 -.215E+01   0.141E-01 -.141E-01 0.141E-01
   0.175E+02 -.175E+02 -.175E+02   -.193E+02 0.193E+02 0.193E+02   0.215E+01 -.215E+01 -.215E+01   -.141E-01 0.141E-01 0.141E-01
 -----------------------------------------------------------------------------------------------
   0.283E-06 0.308E-06 0.308E-06   -.355E-14 0.000E+00 -.355E-14   0.000E+00 -.444E-15 -.444E-15   0.159E-08 0.159E-08 0.159E-08
 
 
 POSITION                                       TOTAL-FORCE (eV/Angst)
 -----------------------------------------------------------------------------------
      0.00000      0.00000      0.00000         0.371588      0.371588      0.371588
      1.93474      1.93474      0.00000        -0.371588     -0.371588      0.371588
      1.93474      0.00000      1.93474        -0.371588      0.371588     -0.371588
      0.00000      1.93474      1.93474         0.371588     -0.371588     -0.371588
 -----------------------------------------------------------------------------------
    total drift:                                0.000000      0.000000      0.000000


--------------------------------------------------------------------------------------------------------



  FREE ENERGIE OF THE ION-ELECTRON SYSTEM (eV)
  ---------------------------------------------------
  free  energy   TOTEN  =       -16.50636957 eV

  energy  without entropy=      -16.50636957  energy(sigma->0) =      -16.50636957
 


--------------------------------------------------------------------------------------------------------


    POTLOK:  cpu time    0.17: real time    0.17


--------------------------------------------------------------------------------------------------------


 writing wavefunctions
     LOOP+:  cpu time    5.89: real time    6.02
    4ORBIT:  cpu time    0.00: real time    0.00
 


 total charge     
 
# of ion     s       p       d       tot
----------------------------------------
  1        0.917   0.595   0.000   1.512
  2        0.913   0.562   0.000   1.475
  3        0.916   0.565   0.000   1.481
  4        0.919   0.583   0.000   1.502
------------------------------------------------
tot        3.664   2.306   0.000   5.970
 
 BZINTS: Fermi energy:  3.047812; 16.000000 electrons
         Band energy: -18.204273;  BLOECHL correction: -0.053171

 total amount of memory used by VASP on root node    57224. kBytes
========================================================================

   base      :      30000. kBytes
   nonlr-proj:       1042. kBytes
   grid      :      20134. kBytes
   one-center:         12. kBytes
   wavefun   :       6036. kBytes
 
  
  
 General timing and accounting informations for this job:
 ========================================================
  
                  Total CPU time used (sec):        6.757
                            User time (sec):        6.492
                          System time (sec):        0.264
                         Elapsed time (sec):        6.951
  
                   Maximum memory used (kb):       64736.
                   Average memory used (kb):           0.
  
                          Minor page faults:        69703
                          Major page faults:            0
                 Voluntary context switches:          812
