PROCAR lm decomposed
# of k-points:   10         # of bands:  12         # of ions:   4

 k-point    1 :    0.00000000 0.00000000 0.00000000     weight = 0.01562500

band   1 # energy   -7.38584956 # occ.  2.00000000
 
ion      s     py     pz     px    dxy    dyz    dz2    dxz    dx2    tot
  1  0.089  0.002  0.002  0.002  0.000  0.000  0.000  0.000  0.000  0.094
  2  0.089  0.002  0.002  0.002  0.000  0.000  0.000  0.000  0.000  0.094
  3  0.089  0.002  0.002  0.002  0.000  0.000  0.000  0.000  0.000  0.094
  4  0.089  0.002  0.002  0.002  0.000  0.000  0.000  0.000  0.000  0.094
tot  0.355  0.007  0.007  0.007  0.000  0.000  0.000  0.000  0.000  0.376
 
band   2 # energy   -1.93695001 # occ.  2.00000000
 
ion      s     py     pz     px    dxy    dyz    dz2    dxz    dx2    tot
  1  0.362  0.000  0.000  0.000  0.000  0.000  0.000  0.000  0.000  0.362
  2  0.040  0.001  0.004  0.001  0.000  0.000  0.000  0.000  0.000  0.046
  3  0.040  0.004  0.001  0.001  0.000  0.000  0.000  0.000  0.000  0.046
  4  0.040  0.001  0.001  0.004  0.000  0.000  0.000  0.000  0.000  0.046
tot  0.482  0.006  0.006  0.006  0.000  0.000  0.000  0.000  0.000  0.501
 
band   3 # energy   -1.93690849 # occ.  2.00000000
 
ion      s     py     pz     px    dxy    dyz    dz2    dxz    dx2    tot
  1  0.000  0.002  0.001  0.004  0.000  0.000  0.000  0.000  0.000  0.007
  2  0.077  0.003  0.000  0.002  0.000  0.000  0.000  0.000  0.000  0.083
  3  0.129  0.000  0.002  0.002  0.000  0.000  0.000  0.000  0.000  0.133
  4  0.276  0.000  0.001  0.001  0.000  0.000  0.000  0.000  0.000  0.278
tot  0.482  0.005  0.004  0.009  0.000  0.000  0.000  0.000  0.000  0.501
 
band   4 # energy   -1.93690846 # occ.  2.00000000
 
ion      s     py     pz     px    dxy    dyz    dz2    dxz    dx2    tot
  1  0.000  0.003  0.004  0.001  0.000  0.000  0.000  0.000  0.000  0.007
  2  0.244  0.001  0.001  0.001  0.000  0.000  0.000  0.000  0.000  0.246
  3  0.193  0.000  0.001  0.002  0.000  0.000  0.000  0.000  0.000  0.196
  4  0.045  0.003  0.003  0.000  0.000  0.000  0.000  0.000  0.000  0.052
tot  0.482  0.007  0.008  0.003  0.000  0.000  0.000  0.000  0.000  0.501
 
band   5 # energy   -0.15705782 # occ.  2.00000000
 
ion      s     py     pz     px    dxy    dyz    dz2    dxz    dx2    tot
  1  0.001  0.022  0.022  0.022  0.000  0.000  0.000  0.000  0.000  0.066
  2  0.001  0.022  0.022  0.022  0.000  0.000  0.000  0.000  0.000  0.066
  3  0.001  0.022  0.022  0.022  0.000  0.000  0.000  0.000  0.000  0.066
  4  0.001  0.022  0.022  0.022  0.000  0.000  0.000  0.000  0.000  0.066
tot  0.005  0.087  0.087  0.087  0.000  0.000  0.000  0.000  0.000  0.266
 
band   6 # energy    0.57422600 # occ.  2.00000000
 
ion      s     py     pz     px    dxy    dyz    dz2    dxz    dx2    tot
  1  0.000  0.017  0.010  0.037  0.000  0.000  0.000  0.000  0.000  0.064
  2  0.000  0.017  0.010  0.037  0.000  0.000  0.000  0.000  0.000  0.064
  3  0.000  0.017  0.010  0.037  0.000  0.000  0.000  0.000  0.000  0.064
  4  0.000  0.017  0.010  0.037  0.000  0.000  0.000  0.000  0.000  0.064
tot  0.000  0.068  0.041  0.146  0.000  0.000  0.000  0.000  0.000  0.255
 
band   7 # energy    0.57422619 # occ.  2.00000000
 
ion      s     py     pz     px    dxy    dyz    dz2    dxz    dx2    tot
  1  0.000  0.025  0.032  0.006  0.000  0.000  0.000  0.000  0.000  0.064
  2  0.000  0.025  0.032  0.006  0.000  0.000  0.000  0.000  0.000  0.064
  3  0.000  0.025  0.032  0.006  0.000  0.000  0.000  0.000  0.000  0.064
  4  0.000  0.025  0.032  0.006  0.000  0.000  0.000  0.000  0.000  0.064
tot  0.000  0.102  0.129  0.024  0.000  0.000  0.000  0.000  0.000  0.255
 
band   8 # energy    3.96407427 # occ. -0.49673098
 
ion      s     py     pz     px    dxy    dyz    dz2    dxz    dx2    tot
  1  0.022  0.043  0.043  0.043  0.000  0.000  0.000  0.000  0.000  0.151
  2  0.002  0.001  0.074  0.001  0.000  0.000  0.000  0.000  0.000  0.078
  3  0.002  0.073  0.001  0.001  0.000  0.000  0.000  0.000  0.000  0.078
  4  0.002  0.001  0.001  0.073  0.000  0.000  0.000  0.000  0.000  0.078
tot  0.029  0.118  0.119  0.118  0.000  0.000  0.000  0.000  0.000  0.385
 
band   9 # energy    3.96409013 # occ.  0.00000000
 
ion      s     py     pz     px    dxy    dyz    dz2    dxz    dx2    tot
  1  0.000  0.027  0.035  0.007  0.000  0.000  0.000  0.000  0.000  0.069
  2  0.015  0.026  0.011  0.072  0.000  0.000  0.000  0.000  0.000  0.124
  3  0.012  0.009  0.015  0.077  0.000  0.000  0.000  0.000  0.000  0.113
  4  0.003  0.045  0.029  0.002  0.000  0.000  0.000  0.000  0.000  0.079
tot  0.029  0.108  0.090  0.157  0.000  0.000  0.000  0.000  0.000  0.385
 
band  10 # energy    3.96409054 # occ.  0.00000000
 
ion      s     py     pz     px    dxy    dyz    dz2    dxz    dx2    tot
  1  0.000  0.018  0.011  0.039  0.000  0.000  0.000  0.000  0.000  0.069
  2  0.005  0.062  0.004  0.016  0.000  0.000  0.000  0.000  0.000  0.086
  3  0.008  0.006  0.073  0.011  0.000  0.000  0.000  0.000  0.000  0.098
  4  0.017  0.043  0.059  0.013  0.000  0.000  0.000  0.000  0.000  0.131
tot  0.029  0.129  0.146  0.080  0.000  0.000  0.000  0.000  0.000  0.385
 
band  11 # energy    8.48709481 # occ.  0.00000000
 
ion      s     py     pz     px    dxy    dyz    dz2    dxz    dx2    tot
  1  0.002  0.000  0.000  0.000  0.000  0.000  0.000  0.000  0.000  0.003
  2  0.000  0.000  0.000  0.000  0.000  0.000  0.000  0.000  0.000  0.001
  3  0.000  0.000  0.000  0.000  0.000  0.000  0.000  0.000  0.000  0.001
  4  0.000  0.000  0.000  0.000  0.000  0.000  0.000  0.000  0.000  0.001
tot  0.002  0.001  0.001  0.001  0.000  0.000  0.000  0.000  0.000  0.005
 
band  12 # energy    8.95518501 # occ.  0.00000000
 
ion      s     py     pz     px    dxy    dyz    dz2    dxz    dx2    tot
  1  0.000  0.000  0.000  0.000  0.000  0.000  0.000  0.000  0.000  0.000
  2  0.000  0.000  0.000  0.000  0.000  0.000  0.000  0.000  0.000  0.000
  3  0.000  0.000  0.000  0.000  0.000  0.000  0.000  0.000  0.000  0.000
  4  0.000  0.000  0.000  0.000  0.000  0.000  0.000  0.000  0.000  0.001
tot  0.000  0.000  0.000  0.000  0.000  0.000  0.000  0.000  0.000  0.001
 

 k-point    2 :    0.25000000 0.00000000 0.00000000     weight = 0.09375000

band   1 # energy   -7.14741118 # occ.  2.00000000
 
ion      s     py     pz     px    dxy    dyz    dz2    dxz    dx2    tot
  1  0.089  0.002  0.002  0.003  0.000  0.000  0.000  0.000  0.000  0.096
  2  0.089  0.002  0.002  0.003  0.000  0.000  0.000  0.000  0.000  0.096
  3  0.089  0.002  0.002  0.003  0.000  0.000  0.000  0.000  0.000  0.096
  4  0.089  0.002  0.002  0.003  0.000  0.000  0.000  0.000  0.000  0.096
tot  0.355  0.007  0.007  0.013  0.000  0.000  0.000  0.000  0.000  0.382
 
band   2 # energy   -3.32585194 # occ.  2.00000000
 
ion      s     py     pz     px    dxy    dyz    dz2    dxz    dx2    tot
  1  0.088  0.001  0.001  0.011  0.000  0.000  0.000  0.000  0.000  0.100
  2  0.088  0.001  0.001  0.011  0.000  0.000  0.000  0.000  0.000  0.100
  3  0.088  0.001  0.001  0.011  0.000  0.000  0.000  0.000  0.000  0.100
  4  0.088  0.001  0.001  0.011  0.000  0.000  0.000  0.000  0.000  0.100
tot  0.353  0.003  0.003  0.042  0.000  0.000  0.000  0.000  0.000  0.401
 
band   3 # energy   -1.80797882 # occ.  2.00000000
 
ion      s     py     pz     px    dxy    dyz    dz2    dxz    dx2    tot
  1  0.248  0.001  0.001  0.002  0.000  0.000  0.000  0.000  0.000  0.251
  2  0.000  0.003  0.003  0.000  0.000  0.000  0.000  0.000  0.000  0.006
  3  0.000  0.003  0.003  0.000  0.000  0.000  0.000  0.000  0.000  0.006
  4  0.248  0.001  0.001  0.002  0.000  0.000  0.000  0.000  0.000  0.251
tot  0.497  0.007  0.007  0.003  0.000  0.000  0.000  0.000  0.000  0.514
 
band   4 # energy   -1.80795054 # occ.  2.00000000
 
ion      s     py     pz     px    dxy    dyz    dz2    dxz    dx2    tot
  1  0.000  0.003  0.003  0.000  0.000  0.000  0.000  0.000  0.000  0.006
  2  0.248  0.001  0.001  0.002  0.000  0.000  0.000  0.000  0.000  0.251
  3  0.248  0.001  0.001  0.002  0.000  0.000  0.000  0.000  0.000  0.251
  4  0.000  0.003  0.003  0.000  0.000  0.000  0.000  0.000  0.000  0.006
tot  0.497  0.007  0.007  0.003  0.000  0.000  0.000  0.000  0.000  0.514
 
band   5 # energy    0.27176330 # occ.  2.00000000
 
ion      s     py     pz     px    dxy    dyz    dz2    dxz    dx2    tot
  1  0.003  0.032  0.032  0.002  0.000  0.000  0.000  0.000  0.000  0.068
  2  0.003  0.032  0.032  0.002  0.000  0.000  0.000  0.000  0.000  0.068
  3  0.003  0.032  0.032  0.002  0.000  0.000  0.000  0.000  0.000  0.068
  4  0.003  0.032  0.032  0.002  0.000  0.000  0.000  0.000  0.000  0.068
tot  0.011  0.128  0.128  0.006  0.000  0.000  0.000  0.000  0.000  0.273
 
band   6 # energy    0.81912064 # occ.  2.00000000
 
ion      s     py     pz     px    dxy    dyz    dz2    dxz    dx2    tot
  1  0.000  0.032  0.032  0.000  0.000  0.000  0.000  0.000  0.000  0.065
  2  0.000  0.032  0.032  0.000  0.000  0.000  0.000  0.000  0.000  0.065
  3  0.000  0.032  0.032  0.000  0.000  0.000  0.000  0.000  0.000  0.065
  4  0.000  0.032  0.032  0.000  0.000  0.000  0.000  0.000  0.000  0.065
tot  0.000  0.129  0.129  0.000  0.000  0.000  0.000  0.000  0.000  0.259
 
band   7 # energy    2.29921454 # occ.  2.00000000
 
ion      s     py     pz     px    dxy    dyz    dz2    dxz    dx2    tot
  1  0.032  0.002  0.002  0.058  0.000  0.000  0.000  0.000  0.000  0.095
  2  0.032  0.002  0.002  0.058  0.000  0.000  0.000  0.000  0.000  0.095
  3  0.032  0.002  0.002  0.058  0.000  0.000  0.000  0.000  0.000  0.095
  4  0.032  0.002  0.002  0.058  0.000  0.000  0.000  0.000  0.000  0.095
tot  0.128  0.009  0.009  0.232  0.000  0.000  0.000  0.000  0.000  0.379
 
band   8 # energy    3.15574042 # occ.  1.54732016
 
ion      s     py     pz     px    dxy    dyz    dz2    dxz    dx2    tot
  1  0.016  0.004  0.004  0.090  0.000  0.000  0.000  0.000  0.000  0.113
  2  0.000  0.027  0.027  0.000  0.000  0.000  0.000  0.000  0.000  0.054
  3  0.000  0.027  0.027  0.000  0.000  0.000  0.000  0.000  0.000  0.054
  4  0.016  0.004  0.004  0.090  0.000  0.000  0.000  0.000  0.000  0.113
tot  0.031  0.061  0.061  0.179  0.000  0.000  0.000  0.000  0.000  0.333
 
band   9 # energy    3.15574981 # occ.  0.08833036
 
ion      s     py     pz     px    dxy    dyz    dz2    dxz    dx2    tot
  1  0.000  0.027  0.027  0.000  0.000  0.000  0.000  0.000  0.000  0.054
  2  0.016  0.004  0.004  0.090  0.000  0.000  0.000  0.000  0.000  0.113
  3  0.016  0.004  0.004  0.090  0.000  0.000  0.000  0.000  0.000  0.113
  4  0.000  0.027  0.027  0.000  0.000  0.000  0.000  0.000  0.000  0.054
tot  0.031  0.061  0.061  0.179  0.000  0.000  0.000  0.000  0.000  0.333
 
band  10 # energy    3.41410253 # occ.  0.00000000
 
ion      s     py     pz     px    dxy    dyz    dz2    dxz    dx2    tot
  1  0.001  0.037  0.037  0.006  0.000  0.000  0.000  0.000  0.000  0.081
  2  0.001  0.037  0.037  0.006  0.000  0.000  0.000  0.000  0.000  0.081
  3  0.001  0.037  0.037  0.006  0.000  0.000  0.000  0.000  0.000  0.081
  4  0.001  0.037  0.037  0.006  0.000  0.000  0.000  0.000  0.000  0.081
tot  0.003  0.149  0.149  0.022  0.000  0.000  0.000  0.000  0.000  0.323
 
band  11 # energy    4.41546007 # occ.  0.00000000
 
ion      s     py     pz     px    dxy    dyz    dz2    dxz    dx2    tot
  1  0.000  0.034  0.034  0.000  0.000  0.000  0.000  0.000  0.000  0.068
  2  0.000  0.034  0.034  0.000  0.000  0.000  0.000  0.000  0.000  0.068
  3  0.000  0.034  0.034  0.000  0.000  0.000  0.000  0.000  0.000  0.068
  4  0.000  0.034  0.034  0.000  0.000  0.000  0.000  0.000  0.000  0.068
tot  0.000  0.136  0.136  0.000  0.000  0.000  0.000  0.000  0.000  0.272
 
band  12 # energy    5.85180738 # occ.  0.00000000
 
ion      s     py     pz     px    dxy    dyz    dz2    dxz    dx2    tot
  1  0.001  0.040  0.040  0.036  0.000  0.000  0.000  0.000  0.000  0.117
  2  0.000  0.026  0.026  0.000  0.000  0.000  0.000  0.000  0.000  0.053
  3  0.000  0.026  0.026  0.000  0.000  0.000  0.000  0.000  0.000  0.053
  4  0.001  0.040  0.040  0.036  0.000  0.000  0.000  0.000  0.000  0.117
tot  0.002  0.133  0.133  0.072  0.000  0.000  0.000  0.000  0.000  0.339
 

 k-point    3 :    0.50000000 0.00000000 0.00000000     weight = 0.04687500

band   1 # energy   -6.81710531 # occ.  2.00000000
 
ion      s     py     pz     px    dxy    dyz    dz2    dxz    dx2    tot
  1  0.089  0.002  0.002  0.005  0.000  0.000  0.000  0.000  0.000  0.099
  2  0.089  0.002  0.002  0.005  0.000  0.000  0.000  0.000  0.000  0.099
  3  0.089  0.002  0.002  0.005  0.000  0.000  0.000  0.000  0.000  0.099
  4  0.089  0.002  0.002  0.005  0.000  0.000  0.000  0.000  0.000  0.099
tot  0.358  0.007  0.007  0.022  0.000  0.000  0.000  0.000  0.000  0.394
 
band   2 # energy   -4.27588169 # occ.  2.00000000
 
ion      s     py     pz     px    dxy    dyz    dz2    dxz    dx2    tot
  1  0.082  0.001  0.001  0.008  0.000  0.000  0.000  0.000  0.000  0.092
  2  0.082  0.001  0.001  0.008  0.000  0.000  0.000  0.000  0.000  0.092
  3  0.082  0.001  0.001  0.008  0.000  0.000  0.000  0.000  0.000  0.092
  4  0.082  0.001  0.001  0.008  0.000  0.000  0.000  0.000  0.000  0.092
tot  0.329  0.003  0.003  0.033  0.000  0.000  0.000  0.000  0.000  0.367
 
band   3 # energy   -1.66054129 # occ.  2.00000000
 
ion      s     py     pz     px    dxy    dyz    dz2    dxz    dx2    tot
  1  0.259  0.001  0.001  0.002  0.000  0.000  0.000  0.000  0.000  0.262
  2  0.000  0.002  0.002  0.000  0.000  0.000  0.000  0.000  0.000  0.004
  3  0.000  0.002  0.002  0.000  0.000  0.000  0.000  0.000  0.000  0.004
  4  0.259  0.001  0.001  0.002  0.000  0.000  0.000  0.000  0.000  0.262
tot  0.518  0.005  0.005  0.003  0.000  0.000  0.000  0.000  0.000  0.532
 
band   4 # energy   -1.66051263 # occ.  2.00000000
 
ion      s     py     pz     px    dxy    dyz    dz2    dxz    dx2    tot
  1  0.000  0.002  0.002  0.000  0.000  0.000  0.000  0.000  0.000  0.004
  2  0.259  0.001  0.001  0.002  0.000  0.000  0.000  0.000  0.000  0.262
  3  0.259  0.001  0.001  0.002  0.000  0.000  0.000  0.000  0.000  0.262
  4  0.000  0.002  0.002  0.000  0.000  0.000  0.000  0.000  0.000  0.004
tot  0.518  0.005  0.005  0.003  0.000  0.000  0.000  0.000  0.000  0.532
 
band   5 # energy    0.60919700 # occ.  2.00000000
 
ion      s     py     pz     px    dxy    dyz    dz2    dxz    dx2    tot
  1  0.002  0.033  0.033  0.001  0.000  0.000  0.000  0.000  0.000  0.070
  2  0.002  0.033  0.033  0.001  0.000  0.000  0.000  0.000  0.000  0.070
  3  0.002  0.033  0.033  0.001  0.000  0.000  0.000  0.000  0.000  0.070
  4  0.002  0.033  0.033  0.001  0.000  0.000  0.000  0.000  0.000  0.070
tot  0.010  0.133  0.133  0.004  0.000  0.000  0.000  0.000  0.000  0.281
 
band   6 # energy    1.16789900 # occ.  2.00000000
 
ion      s     py     pz     px    dxy    dyz    dz2    dxz    dx2    tot
  1  0.000  0.033  0.033  0.000  0.000  0.000  0.000  0.000  0.000  0.067
  2  0.000  0.033  0.033  0.000  0.000  0.000  0.000  0.000  0.000  0.067
  3  0.000  0.033  0.033  0.000  0.000  0.000  0.000  0.000  0.000  0.067
  4  0.000  0.033  0.033  0.000  0.000  0.000  0.000  0.000  0.000  0.067
tot  0.000  0.133  0.133  0.000  0.000  0.000  0.000  0.000  0.000  0.266
 
band   7 # energy    2.53547513 # occ.  2.00000000
 
ion      s     py     pz     px    dxy    dyz    dz2    dxz    dx2    tot
  1  0.010  0.002  0.002  0.086  0.000  0.000  0.000  0.000  0.000  0.099
  2  0.000  0.025  0.025  0.000  0.000  0.000  0.000  0.000  0.000  0.049
  3  0.000  0.025  0.025  0.000  0.000  0.000  0.000  0.000  0.000  0.049
  4  0.010  0.002  0.002  0.086  0.000  0.000  0.000  0.000  0.000  0.099
tot  0.019  0.053  0.053  0.171  0.000  0.000  0.000  0.000  0.000  0.297
 
band   8 # energy    2.53548300 # occ.  2.01013754
 
ion      s     py     pz     px    dxy    dyz    dz2    dxz    dx2    tot
  1  0.000  0.025  0.025  0.000  0.000  0.000  0.000  0.000  0.000  0.049
  2  0.010  0.002  0.002  0.086  0.000  0.000  0.000  0.000  0.000  0.099
  3  0.010  0.002  0.002  0.086  0.000  0.000  0.000  0.000  0.000  0.099
  4  0.000  0.025  0.025  0.000  0.000  0.000  0.000  0.000  0.000  0.049
tot  0.019  0.053  0.053  0.171  0.000  0.000  0.000  0.000  0.000  0.297
 
band   9 # energy    2.63907005 # occ.  1.46909842
 
ion      s     py     pz     px    dxy    dyz    dz2    dxz    dx2    tot
  1  0.004  0.034  0.034  0.002  0.000  0.000  0.000  0.000  0.000  0.075
  2  0.004  0.034  0.034  0.002  0.000  0.000  0.000  0.000  0.000  0.075
  3  0.004  0.034  0.034  0.002  0.000  0.000  0.000  0.000  0.000  0.075
  4  0.004  0.034  0.034  0.002  0.000  0.000  0.000  0.000  0.000  0.075
tot  0.017  0.138  0.138  0.008  0.000  0.000  0.000  0.000  0.000  0.300
 
band  10 # energy    3.48502911 # occ.  0.00000000
 
ion      s     py     pz     px    dxy    dyz    dz2    dxz    dx2    tot
  1  0.000  0.030  0.030  0.000  0.000  0.000  0.000  0.000  0.000  0.061
  2  0.000  0.030  0.030  0.000  0.000  0.000  0.000  0.000  0.000  0.061
  3  0.000  0.030  0.030  0.000  0.000  0.000  0.000  0.000  0.000  0.061
  4  0.000  0.030  0.030  0.000  0.000  0.000  0.000  0.000  0.000  0.061
tot  0.000  0.121  0.121  0.000  0.000  0.000  0.000  0.000  0.000  0.243
 
band  11 # energy    4.64527020 # occ.  0.00000000
 
ion      s     py     pz     px    dxy    dyz    dz2    dxz    dx2    tot
  1  0.021  0.000  0.000  0.091  0.000  0.000  0.000  0.000  0.000  0.112
  2  0.020  0.000  0.000  0.092  0.000  0.000  0.000  0.000  0.000  0.113
  3  0.020  0.000  0.000  0.092  0.000  0.000  0.000  0.000  0.000  0.113
  4  0.021  0.000  0.000  0.091  0.000  0.000  0.000  0.000  0.000  0.112
tot  0.081  0.001  0.001  0.366  0.000  0.000  0.000  0.000  0.000  0.450
 
band  12 # energy    6.17884415 # occ.  0.00000000
 
ion      s     py     pz     px    dxy    dyz    dz2    dxz    dx2    tot
  1  0.000  0.026  0.026  0.000  0.000  0.000  0.000  0.000  0.000  0.052
  2  0.002  0.050  0.050  0.019  0.000  0.000  0.000  0.000  0.000  0.119
  3  0.002  0.050  0.050  0.019  0.000  0.000  0.000  0.000  0.000  0.119
  4  0.000  0.026  0.026  0.000  0.000  0.000  0.000  0.000  0.000  0.052
tot  0.003  0.151  0.151  0.037  0.000  0.000  0.000  0.000  0.000  0.342
 

 k-point    4 :    0.25000000 0.25000000 0.00000000     weight = 0.18750000

band   1 # energy   -6.91237547 # occ.  2.00000000
 
ion      s     py     pz     px    dxy    dyz    dz2    dxz    dx2    tot
  1  0.089  0.003  0.002  0.003  0.000  0.000  0.000  0.000  0.000  0.097
  2  0.089  0.003  0.002  0.003  0.000  0.000  0.000  0.000  0.000  0.097
  3  0.089  0.003  0.002  0.003  0.000  0.000  0.000  0.000  0.000  0.097
  4  0.089  0.003  0.002  0.003  0.000  0.000  0.000  0.000  0.000  0.097
tot  0.356  0.013  0.007  0.013  0.000  0.000  0.000  0.000  0.000  0.389
 
band   2 # energy   -3.16150002 # occ.  2.00000000
 
ion      s     py     pz     px    dxy    dyz    dz2    dxz    dx2    tot
  1  0.180  0.003  0.001  0.003  0.000  0.000  0.000  0.000  0.000  0.187
  2  0.180  0.003  0.001  0.003  0.000  0.000  0.000  0.000  0.000  0.187
  3  0.000  0.009  0.000  0.009  0.000  0.000  0.000  0.000  0.000  0.018
  4  0.000  0.009  0.000  0.009  0.000  0.000  0.000  0.000  0.000  0.018
tot  0.360  0.024  0.003  0.024  0.000  0.000  0.000  0.000  0.000  0.410
 
band   3 # energy   -3.07210766 # occ.  2.00000000
 
ion      s     py     pz     px    dxy    dyz    dz2    dxz    dx2    tot
  1  0.000  0.009  0.000  0.009  0.000  0.000  0.000  0.000  0.000  0.017
  2  0.000  0.009  0.000  0.009  0.000  0.000  0.000  0.000  0.000  0.017
  3  0.186  0.002  0.001  0.002  0.000  0.000  0.000  0.000  0.000  0.191
  4  0.186  0.002  0.001  0.002  0.000  0.000  0.000  0.000  0.000  0.191
tot  0.372  0.021  0.002  0.021  0.000  0.000  0.000  0.000  0.000  0.417
 
band   4 # energy   -1.77462038 # occ.  2.00000000
 
ion      s     py     pz     px    dxy    dyz    dz2    dxz    dx2    tot
  1  0.128  0.000  0.002  0.000  0.000  0.000  0.000  0.000  0.000  0.131
  2  0.128  0.000  0.002  0.000  0.000  0.000  0.000  0.000  0.000  0.131
  3  0.127  0.000  0.002  0.000  0.000  0.000  0.000  0.000  0.000  0.130
  4  0.127  0.000  0.002  0.000  0.000  0.000  0.000  0.000  0.000  0.130
tot  0.510  0.001  0.010  0.001  0.000  0.000  0.000  0.000  0.000  0.521
 
band   5 # energy    0.72285283 # occ.  2.00000000
 
ion      s     py     pz     px    dxy    dyz    dz2    dxz    dx2    tot
  1  0.007  0.002  0.062  0.002  0.000  0.000  0.000  0.000  0.000  0.072
  2  0.007  0.002  0.062  0.002  0.000  0.000  0.000  0.000  0.000  0.072
  3  0.002  0.002  0.062  0.002  0.000  0.000  0.000  0.000  0.000  0.068
  4  0.002  0.002  0.062  0.002  0.000  0.000  0.000  0.000  0.000  0.068
tot  0.017  0.007  0.248  0.007  0.000  0.000  0.000  0.000  0.000  0.280
 
band   6 # energy    1.78963858 # occ.  2.00000000
 
ion      s     py     pz     px    dxy    dyz    dz2    dxz    dx2    tot
  1  0.003  0.034  0.009  0.034  0.000  0.000  0.000  0.000  0.000  0.081
  2  0.003  0.034  0.009  0.034  0.000  0.000  0.000  0.000  0.000  0.081
  3  0.000  0.024  0.003  0.024  0.000  0.000  0.000  0.000  0.000  0.052
  4  0.000  0.024  0.003  0.024  0.000  0.000  0.000  0.000  0.000  0.052
tot  0.008  0.116  0.025  0.116  0.000  0.000  0.000  0.000  0.000  0.265
 
band   7 # energy    2.02053902 # occ.  2.00000000
 
ion      s     py     pz     px    dxy    dyz    dz2    dxz    dx2    tot
  1  0.065  0.007  0.007  0.007  0.000  0.000  0.000  0.000  0.000  0.086
  2  0.065  0.007  0.007  0.007  0.000  0.000  0.000  0.000  0.000  0.086
  3  0.003  0.048  0.006  0.048  0.000  0.000  0.000  0.000  0.000  0.104
  4  0.003  0.048  0.006  0.048  0.000  0.000  0.000  0.000  0.000  0.104
tot  0.136  0.109  0.026  0.109  0.000  0.000  0.000  0.000  0.000  0.380
 
band   8 # energy    2.31437546 # occ.  2.04845900
 
ion      s     py     pz     px    dxy    dyz    dz2    dxz    dx2    tot
  1  0.000  0.042  0.000  0.042  0.000  0.000  0.000  0.000  0.000  0.084
  2  0.000  0.042  0.000  0.042  0.000  0.000  0.000  0.000  0.000  0.084
  3  0.070  0.012  0.015  0.012  0.000  0.000  0.000  0.000  0.000  0.109
  4  0.070  0.012  0.015  0.012  0.000  0.000  0.000  0.000  0.000  0.109
tot  0.141  0.108  0.030  0.108  0.000  0.000  0.000  0.000  0.000  0.386
 
band   9 # energy    3.33037850 # occ.  0.00455844
 
ion      s     py     pz     px    dxy    dyz    dz2    dxz    dx2    tot
  1  0.005  0.032  0.062  0.032  0.000  0.000  0.000  0.000  0.000  0.132
  2  0.005  0.033  0.062  0.033  0.000  0.000  0.000  0.000  0.000  0.133
  3  0.001  0.018  0.000  0.018  0.000  0.000  0.000  0.000  0.000  0.037
  4  0.001  0.018  0.000  0.018  0.000  0.000  0.000  0.000  0.000  0.037
tot  0.014  0.101  0.124  0.101  0.000  0.000  0.000  0.000  0.000  0.339
 
band  10 # energy    3.56856715 # occ.  0.00000000
 
ion      s     py     pz     px    dxy    dyz    dz2    dxz    dx2    tot
  1  0.000  0.020  0.000  0.020  0.000  0.000  0.000  0.000  0.000  0.041
  2  0.000  0.020  0.000  0.020  0.000  0.000  0.000  0.000  0.000  0.041
  3  0.000  0.028  0.068  0.028  0.000  0.000  0.000  0.000  0.000  0.124
  4  0.000  0.028  0.068  0.028  0.000  0.000  0.000  0.000  0.000  0.124
tot  0.000  0.096  0.135  0.096  0.000  0.000  0.000  0.000  0.000  0.329
 
band  11 # energy    4.80211163 # occ.  0.00000000
 
ion      s     py     pz     px    dxy    dyz    dz2    dxz    dx2    tot
  1  0.005  0.011  0.076  0.011  0.000  0.000  0.000  0.000  0.000  0.102
  2  0.005  0.011  0.076  0.011  0.000  0.000  0.000  0.000  0.000  0.103
  3  0.000  0.017  0.000  0.016  0.000  0.000  0.000  0.000  0.000  0.034
  4  0.000  0.016  0.000  0.017  0.000  0.000  0.000  0.000  0.000  0.034
tot  0.010  0.055  0.152  0.055  0.000  0.000  0.000  0.000  0.000  0.272
 
band  12 # energy    4.98699700 # occ.  0.00000000
 
ion      s     py     pz     px    dxy    dyz    dz2    dxz    dx2    tot
  1  0.000  0.019  0.000  0.019  0.000  0.000  0.000  0.000  0.000  0.038
  2  0.000  0.019  0.000  0.019  0.000  0.000  0.000  0.000  0.000  0.038
  3  0.004  0.014  0.065  0.014  0.000  0.000  0.000  0.000  0.000  0.097
  4  0.004  0.014  0.065  0.014  0.000  0.000  0.000  0.000  0.000  0.097
tot  0.008  0.067  0.129  0.067  0.000  0.000  0.000  0.000  0.000  0.271
 

 k-point    5 :    0.50000000 0.25000000 0.00000000     weight = 0.18750000

band   1 # energy   -6.58853959 # occ.  2.00000000
 
ion      s     py     pz     px    dxy    dyz    dz2    dxz    dx2    tot
  1  0.090  0.003  0.002  0.005  0.000  0.000  0.000  0.000  0.000  0.100
  2  0.090  0.003  0.002  0.005  0.000  0.000  0.000  0.000  0.000  0.100
  3  0.090  0.003  0.002  0.005  0.000  0.000  0.000  0.000  0.000  0.100
  4  0.090  0.003  0.002  0.005  0.000  0.000  0.000  0.000  0.000  0.100
tot  0.358  0.013  0.008  0.022  0.000  0.000  0.000  0.000  0.000  0.401
 
band   2 # energy   -4.04270783 # occ.  2.00000000
 
ion      s     py     pz     px    dxy    dyz    dz2    dxz    dx2    tot
  1  0.084  0.001  0.001  0.008  0.000  0.000  0.000  0.000  0.000  0.094
  2  0.084  0.001  0.001  0.008  0.000  0.000  0.000  0.000  0.000  0.094
  3  0.084  0.001  0.001  0.008  0.000  0.000  0.000  0.000  0.000  0.094
  4  0.084  0.001  0.001  0.008  0.000  0.000  0.000  0.000  0.000  0.094
tot  0.338  0.006  0.003  0.032  0.000  0.000  0.000  0.000  0.000  0.377
 
band   3 # energy   -2.82979032 # occ.  2.00000000
 
ion      s     py     pz     px    dxy    dyz    dz2    dxz    dx2    tot
  1  0.097  0.009  0.001  0.002  0.000  0.000  0.000  0.000  0.000  0.109
  2  0.097  0.009  0.001  0.002  0.000  0.000  0.000  0.000  0.000  0.109
  3  0.097  0.009  0.001  0.002  0.000  0.000  0.000  0.000  0.000  0.109
  4  0.097  0.009  0.001  0.002  0.000  0.000  0.000  0.000  0.000  0.109
tot  0.388  0.037  0.002  0.008  0.000  0.000  0.000  0.000  0.000  0.435
 
band   4 # energy   -1.82082033 # occ.  2.00000000
 
ion      s     py     pz     px    dxy    dyz    dz2    dxz    dx2    tot
  1  0.127  0.000  0.001  0.000  0.000  0.000  0.000  0.000  0.000  0.129
  2  0.127  0.000  0.001  0.000  0.000  0.000  0.000  0.000  0.000  0.129
  3  0.127  0.000  0.001  0.000  0.000  0.000  0.000  0.000  0.000  0.129
  4  0.127  0.000  0.001  0.000  0.000  0.000  0.000  0.000  0.000  0.129
tot  0.508  0.001  0.006  0.000  0.000  0.000  0.000  0.000  0.000  0.515
 
band   5 # energy    1.03579396 # occ.  2.00000000
 
ion      s     py     pz     px    dxy    dyz    dz2    dxz    dx2    tot
  1  0.005  0.004  0.063  0.001  0.000  0.000  0.000  0.000  0.000  0.073
  2  0.005  0.004  0.063  0.001  0.000  0.000  0.000  0.000  0.000  0.073
  3  0.005  0.004  0.063  0.001  0.000  0.000  0.000  0.000  0.000  0.073
  4  0.005  0.004  0.063  0.001  0.000  0.000  0.000  0.000  0.000  0.073
tot  0.021  0.014  0.251  0.006  0.000  0.000  0.000  0.000  0.000  0.292
 
band   6 # energy    1.20318140 # occ.  2.00000000
 
ion      s     py     pz     px    dxy    dyz    dz2    dxz    dx2    tot
  1  0.001  0.029  0.007  0.027  0.000  0.000  0.000  0.000  0.000  0.064
  2  0.001  0.029  0.007  0.027  0.000  0.000  0.000  0.000  0.000  0.064
  3  0.001  0.029  0.007  0.027  0.000  0.000  0.000  0.000  0.000  0.064
  4  0.001  0.029  0.007  0.027  0.000  0.000  0.000  0.000  0.000  0.064
tot  0.003  0.114  0.028  0.109  0.000  0.000  0.000  0.000  0.000  0.254
 
band   7 # energy    1.82605073 # occ.  2.00000000
 
ion      s     py     pz     px    dxy    dyz    dz2    dxz    dx2    tot
  1  0.030  0.029  0.013  0.017  0.000  0.000  0.000  0.000  0.000  0.089
  2  0.030  0.029  0.013  0.017  0.000  0.000  0.000  0.000  0.000  0.089
  3  0.030  0.029  0.013  0.017  0.000  0.000  0.000  0.000  0.000  0.089
  4  0.030  0.029  0.013  0.017  0.000  0.000  0.000  0.000  0.000  0.089
tot  0.120  0.115  0.051  0.069  0.000  0.000  0.000  0.000  0.000  0.355
 
band   8 # energy    2.74595378 # occ.  1.99833161
 
ion      s     py     pz     px    dxy    dyz    dz2    dxz    dx2    tot
  1  0.016  0.022  0.042  0.008  0.000  0.000  0.000  0.000  0.000  0.089
  2  0.016  0.022  0.042  0.008  0.000  0.000  0.000  0.000  0.000  0.089
  3  0.016  0.022  0.042  0.008  0.000  0.000  0.000  0.000  0.000  0.089
  4  0.016  0.022  0.042  0.008  0.000  0.000  0.000  0.000  0.000  0.089
tot  0.065  0.089  0.169  0.033  0.000  0.000  0.000  0.000  0.000  0.356
 
band   9 # energy    3.34642566 # occ.  0.00732701
 
ion      s     py     pz     px    dxy    dyz    dz2    dxz    dx2    tot
  1  0.008  0.038  0.017  0.025  0.000  0.000  0.000  0.000  0.000  0.088
  2  0.008  0.038  0.017  0.025  0.000  0.000  0.000  0.000  0.000  0.088
  3  0.008  0.038  0.017  0.025  0.000  0.000  0.000  0.000  0.000  0.088
  4  0.008  0.038  0.017  0.025  0.000  0.000  0.000  0.000  0.000  0.088
tot  0.032  0.151  0.068  0.102  0.000  0.000  0.000  0.000  0.000  0.353
 
band  10 # energy    4.12340760 # occ.  0.00000000
 
ion      s     py     pz     px    dxy    dyz    dz2    dxz    dx2    tot
  1  0.014  0.026  0.023  0.008  0.000  0.000  0.000  0.000  0.000  0.072
  2  0.014  0.026  0.023  0.008  0.000  0.000  0.000  0.000  0.000  0.072
  3  0.014  0.026  0.023  0.008  0.000  0.000  0.000  0.000  0.000  0.072
  4  0.014  0.026  0.023  0.008  0.000  0.000  0.000  0.000  0.000  0.072
tot  0.057  0.106  0.092  0.032  0.000  0.000  0.000  0.000  0.000  0.287
 
band  11 # energy    4.60094231 # occ.  0.00000000
 
ion      s     py     pz     px    dxy    dyz    dz2    dxz    dx2    tot
  1  0.018  0.006  0.007  0.071  0.000  0.000  0.000  0.000  0.000  0.103
  2  0.018  0.006  0.007  0.071  0.000  0.000  0.000  0.000  0.000  0.103
  3  0.018  0.006  0.007  0.071  0.000  0.000  0.000  0.000  0.000  0.103
  4  0.018  0.006  0.007  0.071  0.000  0.000  0.000  0.000  0.000  0.102
tot  0.072  0.024  0.029  0.285  0.000  0.000  0.000  0.000  0.000  0.410
 
band  12 # energy    5.17055269 # occ.  0.00000000
 