 vasp.5.3.3.4 18Dez12 (build Jun 09 2015 23:09:51) complex                      
  
 POSCAR found :  1 types and       4 ions

 ----------------------------------------------------------------------------- 
|                                                                             |
|  ADVICE TO THIS USER RUNNING 'VASP/VAMP'   (HEAR YOUR MASTER'S VOICE ...):  |
|                                                                             |
|      You have a (more or less) 'small supercell' and for smaller cells      |
|      it is recommended  to use the reciprocal-space projection scheme!      |
|      The real space optimization is not  efficient for small cells and it   |
|      is also less accurate ...                                              |
|      Therefore set LREAL=.FALSE. in the  INCAR file                         |
|                                                                             |
 ----------------------------------------------------------------------------- 

 LDA part: xc-table for Pade appr. of Perdew
 found WAVECAR, reading the header
 WAVECAR: different cutoff or change in lattice found
 POSCAR, INCAR and KPOINTS ok, starting setup
 FFT: planning ...
 reading WAVECAR
 the WAVECAR file was read sucessfully
 initial charge from wavefunction
 entering main loop
       N       E                     dE             d eps       ncg     rms          rms(c)
DAV:   1    -0.170543828349E+02   -0.17054E+02   -0.88795E+00   240   0.158E+01    0.202E+00
RMM:   2    -0.166001365764E+02    0.45425E+00   -0.10844E+00   242   0.597E+00    0.888E-01
RMM:   3    -0.165077010788E+02    0.92435E-01   -0.54893E-01   242   0.281E+00    0.252E-01
RMM:   4    -0.165065313890E+02    0.11697E-02   -0.12305E-02   260   0.796E-01    0.108E-01
RMM:   5    -0.165064404237E+02    0.90965E-04   -0.21022E-03   262   0.273E-01    0.309E-02
RMM:   6    -0.165063695748E+02    0.70849E-04   -0.33534E-04   214   0.854E-02
   1 F= -.16506370E+02 E0= -.16506370E+02  d E =0.000000E+00
 writing wavefunctions
