<?xml version="1.0" encoding="ISO-8859-1"?>
<modeling>
 <generator>
  <i name="program" type="string">vasp </i>
  <i name="version" type="string">5.3.3.4  </i>
  <i name="subversion" type="string">18Dez12 (build Jun 09 2015 23:09:51) complex                        serial </i>
  <i name="platform" type="string">half-orig-serial </i>
  <i name="date" type="string">2019 07 19 </i>
  <i name="time" type="string">12:43:11 </i>
 </generator>
 <incar>
  <i type="string" name="PREC">acc</i>
  <i type="string" name="ALGO"> Fast</i>
  <i type="int" name="IBRION">    -1</i>
  <i name="EDIFF">      0.00010000</i>
  <i type="int" name="ISIF">     0</i>
  <i name="SYMPREC">      0.00010000</i>
  <i name="ENCUT">    520.00000000</i>
  <i type="string" name="LREAL"> Auto</i>
  <i type="int" name="ISMEAR">    -5</i>
  <i name="SIGMA">      0.05000000</i>
  <i type="logical" name="LORBIT"> F  </i>
  <i type="string" name="GGA"> PE</i>
 </incar>
 <kpoints>
  <generation param="Gamma">
   <v type="int" name="divisions">       4        4        4 </v>
   <v name="usershift">      0.00000000       0.00000000       0.00000000 </v>
   <v name="genvec1">      0.25000000       0.00000000       0.00000000 </v>
   <v name="genvec2">      0.00000000       0.25000000       0.00000000 </v>
   <v name="genvec3">      0.00000000       0.00000000       0.25000000 </v>
   <v name="shift">      0.00000000       0.00000000       0.00000000 </v>
  </generation>
  <varray name="kpointlist" >
   <v>       0.00000000       0.00000000       0.00000000 </v>
   <v>       0.25000000       0.00000000       0.00000000 </v>
   <v>       0.50000000       0.00000000       0.00000000 </v>
   <v>       0.25000000       0.25000000       0.00000000 </v>
   <v>       0.50000000       0.25000000       0.00000000 </v>
   <v>       0.50000000       0.50000000       0.00000000 </v>
   <v>       0.25000000       0.25000000       0.25000000 </v>
   <v>       0.50000000       0.25000000       0.25000000 </v>
   <v>       0.50000000       0.50000000       0.25000000 </v>
   <v>       0.50000000       0.50000000       0.50000000 </v>
  </varray>
  <varray name="weights" >
   <v>       0.01562500 </v>
   <v>       0.09375000 </v>
   <v>       0.04687500 </v>
   <v>       0.18750000 </v>
   <v>       0.18750000 </v>
   <v>       0.04687500 </v>
   <v>       0.12500000 </v>
   <v>       0.18750000 </v>
   <v>       0.09375000 </v>
   <v>       0.01562500 </v>
  </varray>
  <varray name="tetrahedronlist"  type="int" >
   <v type="int" >       12        1        2        2        4 </v>
   <v type="int" >       12        2        2        4        4 </v>
   <v type="int" >       12        2        4        4        7 </v>
   <v type="int" >       12        2        3        4        5 </v>
   <v type="int" >       12        2        4        4        5 </v>
   <v type="int" >       12        4        4        5        7 </v>
   <v type="int" >       12        3        4        5        5 </v>
   <v type="int" >       24        4        5        5        8 </v>
   <v type="int" >       24        4        5        7        8 </v>
   <v type="int" >       12        4        5        6        7 </v>
   <v type="int" >       12        5        6        7        8 </v>
   <v type="int" >       12        6        7        8        9 </v>
   <v type="int" >       12        5        5        6        8 </v>
   <v type="int" >       12        5        6        8        9 </v>
   <v type="int" >       12        5        7        8        8 </v>
   <v type="int" >       12        5        8        8        9 </v>
   <v type="int" >       12        2        3        4        7 </v>
   <v type="int" >       12        3        4        5        7 </v>
   <v type="int" >       12        3        5        7        8 </v>
   <v type="int" >       12        4        5        6        9 </v>
   <v type="int" >       12        4        5        8        9 </v>
   <v type="int" >       12        4        7        8        9 </v>
   <v type="int" >       12        2        3        5        8 </v>
   <v type="int" >       12        2        4        5        8 </v>
   <v type="int" >       12        2        4        7        8 </v>
   <v type="int" >       12        1        2        4        7 </v>
   <v type="int" >       12        7        8        8        9 </v>
   <v type="int" >       12        8        8        9        9 </v>
   <v type="int" >       12        8        9        9       10 </v>
   <v type="int" >       12        7        8        9       10 </v>
  </varray>
  <i name="volumeweight">      0.00260417 </i>
 </kpoints>
 <parameters>
  <separator name="general" >
   <i type="string" name="SYSTEM">unknown system</i>
   <i type="logical" name="LCOMPAT"> F  </i>
  </separator>
  <separator name="electronic" >
   <i type="string" name="PREC">acc</i>
   <i name="ENMAX">    520.00000000</i>
   <i name="ENAUG">    322.06900000</i>
   <i name="EDIFF">      0.00010000</i>
   <i type="int" name="IALGO">    68</i>
   <i type="int" name="IWAVPR">     0</i>
   <i type="int" name="NBANDS">    12</i>
   <i name="NELECT">     16.00000000</i>
   <i type="int" name="TURBO">     0</i>
   <i type="int" name="IRESTART">     0</i>
   <i type="int" name="NREBOOT">     0</i>
   <i type="int" name="NMIN">     0</i>
   <i name="EREF">      0.00000000</i>
   <separator name="electronic smearing" >
    <i type="int" name="ISMEAR">    -5</i>
    <i name="SIGMA">      0.05000000</i>
    <i name="KSPACING">      0.50000000</i>
    <i type="logical" name="KGAMMA"> T  </i>
   </separator>
   <separator name="electronic projectors" >
    <i type="logical" name="LREAL"> T  </i>
    <v name="ROPT">     -0.00025000</v>
    <i type="int" name="LMAXPAW">  -100</i>
    <i type="int" name="LMAXMIX">     2</i>
    <i type="logical" name="NLSPLINE"> F  </i>
   </separator>
   <separator name="electronic startup" >
    <i type="int" name="ISTART">     1</i>
    <i type="int" name="ICHARG">     0</i>
    <i type="int" name="INIWAV">     1</i>
   </separator>
   <separator name="electronic spin" >
    <i type="int" name="ISPIN">     1</i>
    <i type="logical" name="LNONCOLLINEAR"> F  </i>
    <v name="MAGMOM">      1.00000000      1.00000000      1.00000000      1.00000000</v>
    <i name="NUPDOWN">     -1.00000000</i>
    <i type="logical" name="LSORBIT"> F  </i>
    <v name="SAXIS">      0.00000000      0.00000000      1.00000000</v>
    <i type="logical" name="LSPIRAL"> F  </i>
    <v name="QSPIRAL">      0.00000000      0.00000000      0.00000000</v>
    <i type="logical" name="LZEROZ"> F  </i>
   </separator>
   <separator name="electronic exchange-correlation" >
    <i type="logical" name="LASPH"> F  </i>
    <i type="logical" name="LMETAGGA"> F  </i>
   </separator>
   <separator name="electronic convergence" >
    <i type="int" name="NELM">    60</i>
    <i type="int" name="NELMDL">     0</i>
    <i type="int" name="NELMIN">     2</i>
    <i name="ENINI">    520.00000000</i>
    <separator name="electronic convergence detail" >
     <i type="logical" name="LDIAG"> T  </i>
     <i type="logical" name="LSUBROT"> T  </i>
     <i name="WEIMIN">      0.00000000</i>
     <i name="EBREAK">      0.00000208</i>
     <i name="DEPER">      0.30000000</i>
     <i type="int" name="NRMM">     4</i>
     <i name="TIME">      0.40000000</i>
    </separator>
   </separator>
   <separator name="electronic mixer" >
    <i name="AMIX">      0.40000000</i>
    <i name="BMIX">      1.00000000</i>
    <i name="AMIN">      0.10000000</i>
    <i name="AMIX_MAG">      1.60000000</i>
    <i name="BMIX_MAG">      1.00000000</i>
    <separator name="electronic mixer details" >
     <i type="int" name="IMIX">     4</i>
     <i type="int" name="MAXMIX">   -45</i>
     <i name="WC">    100.00000000</i>
     <i type="int" name="INIMIX">     1</i>
     <i type="int" name="MIXPRE">     1</i>
     <i type="int" name="MREMOVE">     5</i>
    </separator>
   </separator>
   <separator name="electronic dipolcorrection" >
    <i type="logical" name="LDIPOL"> F  </i>
    <i type="logical" name="LMONO"> F  </i>
    <i type="int" name="IDIPOL">     0</i>
    <i name="EPSILON">      1.00000000</i>
    <v name="DIPOL">   -100.00000000   -100.00000000   -100.00000000</v>
    <i name="EFIELD">      0.00000000</i>
   </separator>
  </separator>
  <separator name="grids" >
   <i type="int" name="NGX">    36</i>
   <i type="int" name="NGY">    36</i>
   <i type="int" name="NGZ">    36</i>
   <i type="int" name="NGXF">    72</i>
   <i type="int" name="NGYF">    72</i>
   <i type="int" name="NGZF">    72</i>
   <i type="logical" name="ADDGRID"> F  </i>
  </separator>
  <separator name="ionic" >
   <i type="int" name="NSW">     0</i>
   <i type="int" name="IBRION">    -1</i>
   <i type="int" name="ISIF">     0</i>
   <i name="PSTRESS">      0.00000000</i>
   <i name="EDIFFG">      0.00100000</i>
   <i type="int" name="NFREE">     0</i>
   <i name="POTIM">      0.50000000</i>
   <i name="SMASS">     -3.00000000</i>
   <i name="SCALEE">      1.00000000</i>
  </separator>
  <separator name="ionic md" >
   <i name="TEBEG">      0.00010000</i>
   <i name="TEEND">      0.00010000</i>
   <i type="int" name="NBLOCK">     1</i>
   <i type="int" name="KBLOCK">     1</i>
   <i type="int" name="NPACO">   256</i>
   <i name="APACO">     16.00000000</i>
  </separator>
  <separator name="symmetry" >
   <i type="int" name="ISYM">     2</i>
   <i name="SYMPREC">      0.00010000</i>
  </separator>
  <separator name="dos" >
   <i type="logical" name="LORBIT"> F  </i>
   <v name="RWIGS">     -1.00000000</v>
   <i type="int" name="NEDOS">   301</i>
   <i name="EMIN">     10.00000000</i>
   <i name="EMAX">    -10.00000000</i>
   <i name="EFERMI">      0.00000000</i>
  </separator>
  <separator name="writing" >
   <i type="int" name="NWRITE">     2</i>
   <i type="logical" name="LWAVE"> T  </i>
   <i type="logical" name="LCHARG"> T  </i>
   <i type="logical" name="LPARD"> F  </i>
   <i type="logical" name="LVTOT"> F  </i>
   <i type="logical" name="LVHAR"> F  </i>
   <i type="logical" name="LELF"> F  </i>
   <i type="logical" name="LOPTICS"> F  </i>
   <v name="STM">      0.00000000      0.00000000      0.00000000      0.00000000      0.00000000      0.00000000      0.00000000</v>
  </separator>
  <separator name="performance" >
   <i type="int" name="NPAR">     1</i>
   <i type="int" name="NSIM">     4</i>
   <i type="int" name="NBLK">    -1</i>
   <i type="logical" name="LPLANE"> T  </i>
   <i type="logical" name="LSCALAPACK"> F  </i>
   <i type="logical" name="LSCAAWARE"> F  </i>
   <i type="logical" name="LSCALU"> F  </i>
   <i type="logical" name="LASYNC"> F  </i>
   <i type="logical" name="LORBITALREAL"> F  </i>
  </separator>
  <separator name="miscellaneous" >
   <i type="int" name="IDIOT">     3</i>
   <i type="logical" name="LMUSIC"> F  </i>
   <v name="POMASS">     28.08500000</v>
   <v name="DARWINR">      0.00000000</v>
   <v name="DARWINV">      1.00000000</v>
   <i type="logical" name="LCORR"> T  </i>
  </separator>
  <i type="logical" name="GGA_COMPAT"> T  </i>
  <i type="logical" name="LBERRY"> F  </i>
  <i type="int" name="ICORELEVEL">     0</i>
  <i type="logical" name="LDAU"> F  </i>
  <i type="int" name="I_CONSTRAINED_M">     0</i>
  <separator name="electronic exchange-correlation" >
   <i type="string" name="GGA">PE</i>
   <i type="int" name="VOSKOWN">     0</i>
   <i type="logical" name="LHFCALC"> F  </i>
   <i type="string" name="PRECFOCK"></i>
   <i type="logical" name="LSYMGRAD"> F  </i>
   <i type="logical" name="LHFONE"> F  </i>
   <i type="logical" name="LRHFCALC"> F  </i>
   <i type="logical" name="LTHOMAS"> F  </i>
   <i type="logical" name="LMODELHF"> F  </i>
   <i name="ENCUT4O">     -1.00000000</i>
   <i type="int" name="EXXOEP">     0</i>
   <i type="int" name="FOURORBIT">     0</i>
   <i name="AEXX">      0.00000000</i>
   <i name="HFALPHA">      0.00000000</i>
   <i name="MCALPHA">      0.00000000</i>
   <i name="ALDAX">      1.00000000</i>
   <i name="AGGAX">      1.00000000</i>
   <i name="ALDAC">      1.00000000</i>
   <i name="AGGAC">      1.00000000</i>
   <i type="int" name="NKREDX">     1</i>
   <i type="int" name="NKREDY">     1</i>
   <i type="int" name="NKREDZ">     1</i>
   <i type="logical" name="SHIFTRED"> F  </i>
   <i type="logical" name="ODDONLY"> F  </i>
   <i type="logical" name="EVENONLY"> F  </i>
   <i type="int" name="LMAXFOCK">     0</i>
   <i type="int" name="NMAXFOCKAE">     0</i>
   <i type="logical" name="LFOCKAEDFT"> F  </i>
   <i name="HFSCREEN">      0.00000000</i>
   <i name="HFSCREENC">      0.00000000</i>
   <i type="int" name="NBANDSGWLOW">     0</i>
  </separator>
  <separator name="vdW DFT" >
   <i type="logical" name="LUSE_VDW"> F  </i>
   <i name="Zab_VDW">     -0.84910000</i>
   <i name="PARAM1">      0.12340000</i>
   <i name="PARAM2">      1.00000000</i>
   <i name="PARAM3">      0.00000000</i>
  </separator>
  <separator name="model GW" >
   <i type="int" name="MODEL_GW">     0</i>
   <i name="MODEL_EPS0">     16.97386722</i>
   <i name="MODEL_ALPHA">      1.00000000</i>
  </separator>
  <separator name="linear response parameters" >
   <i type="logical" name="LEPSILON"> F  </i>
   <i type="logical" name="LRPA"> F  </i>
   <i type="logical" name="LNABLA"> F  </i>
   <i type="logical" name="LVEL"> F  </i>
   <i type="int" name="KINTER">     0</i>
   <i name="CSHIFT">      0.10000000</i>
   <i name="OMEGAMAX">     -1.00000000</i>
   <i name="DEG_THRESHOLD">      0.00200000</i>
  </separator>
  <separator name="orbital magnetization" >
   <i type="logical" name="NUCIND"> F  </i>
   <v name="MAGPOS">      0.00000000      0.00000000      0.00000000</v>
   <i type="logical" name="LNICSALL"> T  </i>
   <i type="logical" name="ORBITALMAG"> F  </i>
   <i type="logical" name="LMAGBLOCH"> F  </i>
   <i type="logical" name="LCHIMAG"> F  </i>
   <i type="logical" name="LGAUGE"> T  </i>
   <i type="int" name="MAGATOM">     0</i>
   <v name="MAGDIPOL">      0.00000000      0.00000000      0.00000000</v>
   <v name="AVECCONST">      0.00000000      0.00000000      0.00000000</v>
  </separator>
  <separator name="response functions" >
   <i type="logical" name="LADDER"> F  </i>
   <i type="logical" name="LFXC"> F  </i>
   <i type="logical" name="LHARTREE"> T  </i>
   <i type="int" name="IBSE">     0</i>
   <i type="logical" name="LTCTE"> F  </i>
   <i type="logical" name="LTETE"> F  </i>
   <i type="logical" name="LTRIPLET"> F  </i>
   <i type="logical" name="LFXCEPS"> F  </i>
   <i type="logical" name="L2ORDER"> F  </i>
   <i type="logical" name="LUSEW"> F  </i>
   <i name="ENCUTGW">     -2.00000000</i>
   <i name="ENCUTGWSOFT">     -2.00000000</i>
   <i name="ENCUTLF">     -1.00000000</i>
   <i type="int" name="LMAXMP2">    -1</i>
   <i name="SCISSOR">      0.00000000</i>
   <i type="int" name="NOMEGA">     0</i>
   <i type="int" name="NOMEGAR">     0</i>
   <i type="int" name="NBANDSGW">    -1</i>
   <i type="int" name="NBANDSO">    -1</i>
   <i type="int" name="NBANDSV">    -1</i>
   <i type="int" name="NELM">     1</i>
   <i type="int" name="DIM">     3</i>
   <i type="int" name="ANTIRES">     0</i>
   <i name="OMEGAMAX">    -30.00000000</i>
   <i name="OMEGATL">   -200.00000000</i>
   <i type="int" name="OMEGAGRID">     0</i>
   <i name="CSHIFT">     -0.10000000</i>
   <i type="logical" name="SELFENERGY"> F  </i>
   <i type="logical" name="LSPECTRAL"> F  </i>
   <i type="logical" name="ODDONLYGW"> F  </i>
   <i type="logical" name="EVENONLYGW"> F  </i>
   <i type="int" name="NKREDLFX">     1</i>
   <i type="int" name="NKREDLFY">     1</i>
   <i type="int" name="NKREDLFZ">     1</i>
   <i type="int" name="MAXMEM">  1800</i>
   <i type="int" name="TELESCOPE">     0</i>
  </separator>
 </parameters>
 <atominfo>
  <atoms>       4 </atoms>
  <types>       1 </types>
  <array name="atoms" >
   <dimension dim="1">ion</dimension>
   <field type="string">element</field>
   <field type="int">atomtype</field>
   <set>
    <rc><c>Si</c><c>   1</c></rc>
    <rc><c>Si</c><c>   1</c></rc>
    <rc><c>Si</c><c>   1</c></rc>
    <rc><c>Si</c><c>   1</c></rc>
   </set>
  </array>
  <array name="atomtypes" >
   <dimension dim="1">type</dimension>
   <field type="int">atomspertype</field>
   <field type="string">element</field>
   <field>mass</field>
   <field>valence</field>
   <field type="string">pseudopotential</field>
   <set>
    <rc><c>   4</c><c>Si</c><c>     28.08500000</c><c>      4.00000000</c><c> PAW_PBE Si 05Jan2001                   </c></rc>
   </set>
  </array>
 </atominfo>
 <structure name="initialpos" >
  <crystal>
   <varray name="basis" >
    <v>       4.83685625       0.00000000       0.00000000 </v>
    <v>       0.00000000       4.83685625       0.00000000 </v>
    <v>       0.00000000       0.00000000       4.83685625 </v>
   </varray>
   <i name="volume">    113.15911478 </i>
   <varray name="rec_basis" >
    <v>       0.20674586       0.00000000       0.00000000 </v>
    <v>       0.00000000       0.20674586       0.00000000 </v>
    <v>       0.00000000       0.00000000       0.20674586 </v>
   </varray>
  </crystal>
  <varray name="positions" >
   <v>       0.00000000       0.00000000       0.00000000 </v>
   <v>       0.40000000       0.40000000       0.00000000 </v>
   <v>       0.40000000       0.00000000       0.40000000 </v>
   <v>       0.00000000       0.40000000       0.40000000 </v>
  </varray>
 </structure>
 <calculation>
  <scstep>
   <time name="dav">    0.71    0.71</time>
   <time name="total">    1.04    1.05</time>
   <energy>
    <i name="alphaZ">      4.75975139 </i>
    <i name="ewald">   -410.62143243 </i>
    <i name="hartreedc">    -29.19526448 </i>
    <i name="XCdc">    -40.30266905 </i>
    <i name="pawpsdc">    126.27249454 </i>
    <i name="pawaedc">    -55.63797846 </i>
    <i name="eentropy">      0.00000000 </i>
    <i name="bandstr">    -24.59468981 </i>
    <i name="atom">    412.26540547 </i>
    <i name="e_fr_energy">    -17.05438283 </i>
    <i name="e_wo_entrp">    -17.05438283 </i>
    <i name="e_0_energy">    -17.05438283 </i>
   </energy>
  </scstep>
  <scstep>
   <time name="diag">    0.11    0.11</time>
   <time name="diis">    0.54    0.54</time>
   <time name="orth">    0.00    0.00</time>
   <time name="total">    0.92    0.92</time>
   <energy>
    <i name="e_fr_energy">    -16.60013658 </i>
    <i name="e_wo_entrp">    -16.60013658 </i>
    <i name="e_0_energy">    -16.60013658 </i>
   </energy>
  </scstep>
  <scstep>
   <time name="diag">    0.14    0.14</time>
   <time name="diis">    0.45    0.45</time>
   <time name="orth">    0.00    0.00</time>
   <time name="total">    0.91    0.91</time>
   <energy>
    <i name="e_fr_energy">    -16.50770108 </i>
    <i name="e_wo_entrp">    -16.50770108 </i>
    <i name="e_0_energy">    -16.50770108 </i>
   </energy>
  </scstep>
  <scstep>
   <time name="diag">    0.10    0.10</time>
   <time name="diis">    0.40    0.40</time>
   <time name="orth">    0.00    0.00</time>
   <time name="total">    0.75    0.75</time>
   <energy>
    <i name="e_fr_energy">    -16.50653139 </i>
    <i name="e_wo_entrp">    -16.50653139 </i>
    <i name="e_0_energy">    -16.50653139 </i>
   </energy>
  </scstep>
  <scstep>
   <time name="diag">    0.10    0.10</time>
   <time name="diis">    0.40    0.40</time>
   <time name="orth">    0.00    0.00</time>
   <time name="total">    0.74    0.74</time>
   <energy>
    <i name="e_fr_energy">    -16.50644042 </i>
    <i name="e_wo_entrp">    -16.50644042 </i>
    <i name="e_0_energy">    -16.50644042 </i>
   </energy>
  </scstep>
  <scstep>
   <time name="diag">    0.10    0.10</time>
   <time name="diis">    0.34    0.34</time>
   <time name="orth">    0.00    0.00</time>
   <time name="total">    0.62    0.63</time>
   <energy>
    <i name="alphaZ">      4.75975139 </i>
    <i name="ewald">   -410.62143243 </i>
    <i name="hartreedc">    -35.13463670 </i>
    <i name="XCdc">    -40.00138379 </i>
    <i name="pawpsdc">    131.46458449 </i>
    <i name="pawaedc">    -61.03438521 </i>
    <i name="eentropy">      0.00000000 </i>
    <i name="bandstr">    -18.20427279 </i>
    <i name="atom">    412.26540547 </i>
    <i name="e_fr_energy">    -16.50636957 </i>
    <i name="e_wo_entrp">    -16.50636957 </i>
    <i name="e_0_energy">    -16.50636957 </i>
   </energy>
  </scstep>
  <structure>
   <crystal>
    <varray name="basis" >
     <v>       4.83685625       0.00000000       0.00000000 </v>
     <v>       0.00000000       4.83685625       0.00000000 </v>
     <v>       0.00000000       0.00000000       4.83685625 </v>
    </varray>
    <i name="volume">    113.15911478 </i>
    <varray name="rec_basis" >
     <v>       0.20674586       0.00000000       0.00000000 </v>
     <v>       0.00000000       0.20674586       0.00000000 </v>
     <v>       0.00000000       0.00000000       0.20674586 </v>
    </varray>
   </crystal>
   <varray name="positions" >
    <v>       0.00000000       0.00000000       0.00000000 </v>
    <v>       0.40000000       0.40000000       0.00000000 </v>
    <v>       0.40000000       0.00000000       0.40000000 </v>
    <v>       0.00000000       0.40000000       0.40000000 </v>
   </varray>
  </structure>
  <varray name="forces" >
   <v>       0.37158788       0.37158788       0.37158788 </v>
   <v>      -0.37158788      -0.37158788       0.37158788 </v>
   <v>      -0.37158788       0.37158788      -0.37158788 </v>
   <v>       0.37158788      -0.37158788      -0.37158788 </v>
  </varray>
  <energy>
   <i name="e_fr_energy">    -16.50636957 </i>
   <i name="e_wo_entrp">    -16.50636957 </i>
   <i name="e_0_energy">      0.00000000 </i>
  </energy>
  <time name="totalsc">    5.89    6.02</time>
  <eigenvalues>
   <array>
    <dimension dim="1">band</dimension>
    <dimension dim="2">kpoint</dimension>
    <dimension dim="3">spin</dimension>
    <field>eigene</field>
    <field>occ</field>
    <set>
     <set comment="spin 1">
      <set comment="kpoint 1">
       <r>   -7.3858    1.0000 </r>
       <r>   -1.9370    1.0000 </r>
       <r>   -1.9369    1.0000 </r>
       <r>   -1.9369    1.0000 </r>
       <r>   -0.1571    1.0000 </r>
       <r>    0.5742    1.0000 </r>
       <r>    0.5742    1.0000 </r>
       <r>    3.9641   -0.2484 </r>
       <r>    3.9641    0.0000 </r>
       <r>    3.9641    0.0000 </r>
       <r>    8.4871    0.0000 </r>
       <r>    8.9552    0.0000 </r>
      </set>
      <set comment="kpoint 2">
       <r>   -7.1474    1.0000 </r>
       <r>   -3.3259    1.0000 </r>
       <r>   -1.8080    1.0000 </r>
       <r>   -1.8080    1.0000 </r>
       <r>    0.2718    1.0000 </r>
       <r>    0.8191    1.0000 </r>
       <r>    2.2992    1.0000 </r>
       <r>    3.1557    0.7737 </r>
       <r>    3.1557    0.0442 </r>
       <r>    3.4141    0.0000 </r>
       <r>    4.4155    0.0000 </r>
       <r>    5.8518    0.0000 </r>
      </set>
      <set comment="kpoint 3">
       <r>   -6.8171    1.0000 </r>
       <r>   -4.2759    1.0000 </r>
       <r>   -1.6605    1.0000 </r>
       <r>   -1.6605    1.0000 </r>
       <r>    0.6092    1.0000 </r>
       <r>    1.1679    1.0000 </r>
       <r>    2.5355    1.0000 </r>
       <r>    2.5355    1.0051 </r>
       <r>    2.6391    0.7345 </r>
       <r>    3.4850    0.0000 </r>
       <r>    4.6453    0.0000 </r>
       <r>    6.1788    0.0000 </r>
      </set>
      <set comment="kpoint 4">
       <r>   -6.9124    1.0000 </r>
       <r>   -3.1615    1.0000 </r>
       <r>   -3.0721    1.0000 </r>
       <r>   -1.7746    1.0000 </r>
       <r>    0.7229    1.0000 </r>
       <r>    1.7896    1.0000 </r>
       <r>    2.0205    1.0000 </r>
       <r>    2.3144    1.0242 </r>
       <r>    3.3304    0.0023 </r>
       <r>    3.5686    0.0000 </r>
       <r>    4.8021    0.0000 </r>
       <r>    4.9870    0.0000 </r>
      </set>
      <set comment="kpoint 5">
       <r>   -6.5885    1.0000 </r>
       <r>   -4.0427    1.0000 </r>
       <r>   -2.8298    1.0000 </r>
       <r>   -1.8208    1.0000 </r>
       <r>    1.0358    1.0000 </r>
       <r>    1.2032    1.0000 </r>
       <r>    1.8261    1.0000 </r>
       <r>    2.7460    0.9992 </r>
       <r>    3.3464    0.0037 </r>
       <r>    4.1234    0.0000 </r>
       <r>    4.6009    0.0000 </r>
       <r>    5.1706    0.0000 </r>
      </set>
      <set comment="kpoint 6">
       <r>   -6.2771    1.0000 </r>
       <r>   -3.7071    1.0000 </r>
       <r>   -3.7071    1.0000 </r>
       <r>   -2.1697    1.0000 </r>
       <r>    0.8852    1.0000 </r>
       <r>    1.3394    1.0000 </r>
       <r>    2.2811    1.0000 </r>
       <r>    2.2811    1.0000 </r>
       <r>    3.5472    0.0000 </r>
       <r>    4.2334    0.0000 </r>
       <r>    4.2334    0.0000 </r>
       <r>    6.0556    0.0000 </r>
      </set>
      <set comment="kpoint 7">
       <r>   -6.6810    1.0000 </r>
       <r>   -3.0221    1.0000 </r>
       <r>   -2.8976    1.0000 </r>
       <r>   -2.8976    1.0000 </r>
       <r>    1.1010    1.0000 </r>
       <r>    1.4410    1.0000 </r>
       <r>    1.4410    1.0000 </r>
       <r>    2.6160    0.9949 </r>
       <r>    3.4518   -0.0087 </r>
       <r>    3.4518    0.0000 </r>
       <r>    5.7774    0.0000 </r>
       <r>    5.9644    0.0000 </r>
      </set>
      <set comment="kpoint 8">
       <r>   -6.3641    1.0000 </r>
       <r>   -3.8253    1.0000 </r>
       <r>   -2.7587    1.0000 </r>
       <r>   -2.6836    1.0000 </r>
       <r>    0.5083    1.0000 </r>
       <r>    0.7069    1.0000 </r>
       <r>    1.7713    1.0000 </r>
       <r>    2.5205    1.0014 </r>
       <r>    3.6827   -0.0113 </r>
       <r>    4.4539    0.0000 </r>
       <r>    5.7276    0.0000 </r>
       <r>    5.9455    0.0000 </r>
      </set>
      <set comment="kpoint 9">
       <r>   -6.0603    1.0000 </r>
       <r>   -3.5226    1.0000 </r>
       <r>   -3.5225    1.0000 </r>
       <r>   -2.6624    1.0000 </r>
       <r>   -0.0654    1.0000 </r>
       <r>    0.9258    1.0000 </r>
       <r>    0.9258    1.0000 </r>
       <r>    2.0936    1.0000 </r>
       <r>    4.1936    0.0000 </r>
       <r>    6.1168    0.0000 </r>
       <r>    6.1170    0.0000 </r>
       <r>    6.8169    0.0000 </r>
      </set>
      <set comment="kpoint 10">
       <r>   -5.7703    1.0000 </r>
       <r>   -3.2929    1.0000 </r>
       <r>   -3.2928    1.0000 </r>
       <r>   -3.2928    1.0000 </r>
       <r>    0.0802    1.0000 </r>
       <r>    0.0802    1.0000 </r>
       <r>    0.0802    1.0000 </r>
       <r>    1.3051    1.0000 </r>
       <r>    6.1237    0.0000 </r>
       <r>    6.1237    0.0000 </r>
       <r>    7.6935    0.0000 </r>
       <r>    7.6936    0.0000 </r>
      </set>
     </set>
    </set>
   </array>
  </eigenvalues>
  <separator name="orbital magnetization" >
   <v name="MAGDIPOLOUT">      0.00000000      0.00000000      0.00000000</v>
  </separator>
  <dos>
   <i name="efermi">      3.04781191 </i>
   <total>
    <array>
     <dimension dim="1">gridpoints</dimension>
     <dimension dim="2">spin</dimension>
     <field>energy</field>
     <field>total</field>
     <field>integrated</field>
     <set>
      <set comment="spin 1">
       <r>    -8.2029     0.0000     0.0000 </r>
       <r>    -8.1430     0.0000     0.0000 </r>
       <r>    -8.0831     0.0000     0.0000 </r>
       <r>    -8.0231     0.0000     0.0000 </r>
       <r>    -7.9632     0.0000     0.0000 </r>
       <r>    -7.9033     0.0000     0.0000 </r>
       <r>    -7.8434     0.0000     0.0000 </r>
       <r>    -7.7835     0.0000     0.0000 </r>
       <r>    -7.7236     0.0000     0.0000 </r>
       <r>    -7.6636     0.0000     0.0000 </r>
       <r>    -7.6037     0.0000     0.0000 </r>
       <r>    -7.5438     0.0000     0.0000 </r>
       <r>    -7.4839     0.0000     0.0000 </r>
       <r>    -7.4240     0.0000     0.0000 </r>
       <r>    -7.3641     0.0044     0.0000 </r>
       <r>    -7.3041     0.0622     0.0017 </r>
       <r>    -7.2442     0.1870     0.0088 </r>
       <r>    -7.1843     0.3786     0.0254 </r>
       <r>    -7.1244     0.6354     0.0555 </r>
       <r>    -7.0645     0.9179     0.1020 </r>
       <r>    -7.0046     1.2120     0.1658 </r>
       <r>    -6.9446     1.5178     0.2475 </r>
       <r>    -6.8847     1.8372     0.3479 </r>
       <r>    -6.8248     2.1896     0.4683 </r>
       <r>    -6.7649     2.5165     0.6099 </r>
       <r>    -6.7050     2.7155     0.7673 </r>
       <r>    -6.6451     2.7844     0.9327 </r>
       <r>    -6.5851     2.7201     1.0983 </r>
       <r>    -6.5252     2.5757     1.2572 </r>
       <r>    -6.4653     2.3833     1.4060 </r>
       <r>    -6.4054     2.1427     1.5418 </r>
       <r>    -6.3455     1.8518     1.6618 </r>
       <r>    -6.2856     1.4932     1.7624 </r>
       <r>    -6.2256     1.1150     1.8402 </r>
       <r>    -6.1657     0.8027     1.8973 </r>
       <r>    -6.1058     0.5576     1.9377 </r>
       <r>    -6.0459     0.3760     1.9655 </r>
       <r>    -5.9860     0.2303     1.9834 </r>
       <r>    -5.9261     0.1201     1.9938 </r>
       <r>    -5.8661     0.0455     1.9985 </r>
       <r>    -5.8062     0.0064     1.9999 </r>
       <r>    -5.7463     0.0000     2.0000 </r>
       <r>    -5.6864     0.0000     2.0000 </r>
       <r>    -5.6265     0.0000     2.0000 </r>
       <r>    -5.5665     0.0000     2.0000 </r>
       <r>    -5.5066     0.0000     2.0000 </r>
       <r>    -5.4467     0.0000     2.0000 </r>
       <r>    -5.3868     0.0000     2.0000 </r>
       <r>    -5.3269     0.0000     2.0000 </r>
       <r>    -5.2670     0.0000     2.0000 </r>
       <r>    -5.2070     0.0000     2.0000 </r>
       <r>    -5.1471     0.0000     2.0000 </r>
       <r>    -5.0872     0.0000     2.0000 </r>
       <r>    -5.0273     0.0000     2.0000 </r>
       <r>    -4.9674     0.0000     2.0000 </r>
       <r>    -4.9075     0.0000     2.0000 </r>
       <r>    -4.8475     0.0000     2.0000 </r>
       <r>    -4.7876     0.0000     2.0000 </r>
       <r>    -4.7277     0.0000     2.0000 </r>
       <r>    -4.6678     0.0000     2.0000 </r>
       <r>    -4.6079     0.0000     2.0000 </r>
       <r>    -4.5480     0.0000     2.0000 </r>
       <r>    -4.4880     0.0000     2.0000 </r>
       <r>    -4.4281     0.0000     2.0000 </r>
       <r>    -4.3682     0.0000     2.0000 </r>
       <r>    -4.3083     0.0000     2.0000 </r>
       <r>    -4.2484     0.0060     2.0001 </r>
       <r>    -4.1885     0.0602     2.0018 </r>
       <r>    -4.1285     0.1709     2.0084 </r>
       <r>    -4.0686     0.3382     2.0234 </r>
       <r>    -4.0087     0.7871     2.0540 </r>
       <r>    -3.9488     1.3627     2.1188 </r>
       <r>    -3.8889     1.8658     2.2158 </r>
       <r>    -3.8290     2.2963     2.3409 </r>
       <r>    -3.7690     2.5228     2.4859 </r>
       <r>    -3.7091     2.6527     2.6414 </r>
       <r>    -3.6492     2.7080     2.8023 </r>
       <r>    -3.5893     2.7046     2.9648 </r>
       <r>    -3.5294     2.6425     3.1253 </r>
       <r>    -3.4694     2.6194     3.2827 </r>
       <r>    -3.4095     2.5962     3.4390 </r>
       <r>    -3.3496     2.5632     3.5936 </r>
       <r>    -3.2897     2.9753     3.7548 </r>
       <r>    -3.2298     3.2233     3.9433 </r>
       <r>    -3.1699     2.9044     4.1297 </r>
       <r>    -3.1099     2.2362     4.2825 </r>
       <r>    -3.0500     2.2254     4.4091 </r>
       <r>    -2.9901     2.9869     4.5646 </r>
       <r>    -2.9302     3.7321     4.7662 </r>
       <r>    -2.8703     4.4375     5.0108 </r>
       <r>    -2.8104     4.2614     5.2911 </r>
       <r>    -2.7504     2.3003     5.4782 </r>
       <r>    -2.6905     2.9131     5.6334 </r>
       <r>    -2.6306     2.1562     5.8385 </r>
       <r>    -2.5707     2.1692     5.9681 </r>
       <r>    -2.5108     2.1845     6.0985 </r>
       <r>    -2.4509     2.2023     6.2299 </r>
       <r>    -2.3909     2.2225     6.3625 </r>
       <r>    -2.3310     2.2451     6.4963 </r>
       <r>    -2.2711     2.2701     6.6316 </r>
       <r>    -2.2112     2.2975     6.7684 </r>
       <r>    -2.1513     2.3256     6.9069 </r>
       <r>    -2.0914     2.3284     7.0465 </r>
       <r>    -2.0314     2.2970     7.1853 </r>
       <r>    -1.9715     2.2316     7.3211 </r>
       <r>    -1.9116     2.1650     7.4523 </r>
       <r>    -1.8517     2.3715     7.5865 </r>
       <r>    -1.7918     8.0187     7.8185 </r>
       <r>    -1.7319     0.8256     7.9804 </r>
       <r>    -1.6719     0.0212     7.9999 </r>
       <r>    -1.6120     0.0000     8.0000 </r>
       <r>    -1.5521     0.0000     8.0000 </r>
       <r>    -1.4922     0.0000     8.0000 </r>
       <r>    -1.4323     0.0000     8.0000 </r>
       <r>    -1.3723     0.0000     8.0000 </r>
       <r>    -1.3124     0.0000     8.0000 </r>
       <r>    -1.2525     0.0000     8.0000 </r>
       <r>    -1.1926     0.0000     8.0000 </r>
       <r>    -1.1327     0.0000     8.0000 </r>
       <r>    -1.0728     0.0000     8.0000 </r>
       <r>    -1.0128     0.0000     8.0000 </r>
       <r>    -0.9529     0.0000     8.0000 </r>
       <r>    -0.8930     0.0000     8.0000 </r>
       <r>    -0.8331     0.0000     8.0000 </r>
       <r>    -0.7732     0.0000     8.0000 </r>
       <r>    -0.7133     0.0000     8.0000 </r>
       <r>    -0.6533     0.0000     8.0000 </r>
       <r>    -0.5934     0.0000     8.0000 </r>
       <r>    -0.5335     0.0000     8.0000 </r>
       <r>    -0.4736     0.0000     8.0000 </r>
       <r>    -0.4137     0.0000     8.0000 </r>
       <r>    -0.3538     0.0000     8.0000 </r>
       <r>    -0.2938     0.0000     8.0000 </r>
       <r>    -0.2339     0.0000     8.0000 </r>
       <r>    -0.1740     0.0000     8.0000 </r>
       <r>    -0.1141     0.0029     8.0000 </r>
       <r>    -0.0542     0.0776     8.0009 </r>
       <r>     0.0057     0.3565     8.0145 </r>
       <r>     0.0657     0.5259     8.0414 </r>
       <r>     0.1256     0.6240     8.0759 </r>
       <r>     0.1855     0.7425     8.1167 </r>
       <r>     0.2454     0.8852     8.1653 </r>
       <r>     0.3053     1.0575     8.2233 </r>
       <r>     0.3652     1.3004     8.2935 </r>
       <r>     0.4252     1.6217     8.3807 </r>
       <r>     0.4851     2.0215     8.4894 </r>
       <r>     0.5450     2.4784     8.6242 </r>
       <r>     0.6049     2.9131     8.7859 </r>
       <r>     0.6648     3.3343     8.9731 </r>
       <r>     0.7248     3.9923     9.1874 </r>
       <r>     0.7847     4.9689     9.4582 </r>
       <r>     0.8446     5.4517     9.7734 </r>
       <r>     0.9045     5.2980    10.0989 </r>
       <r>     0.9644     4.6768    10.3975 </r>
       <r>     1.0243     3.5884    10.6484 </r>
       <r>     1.0843     2.9742    10.8374 </r>
       <r>     1.1442     3.2059    11.0217 </r>
       <r>     1.2041     3.7365    11.2250 </r>
       <r>     1.2640     3.4262    11.4393 </r>
       <r>     1.3239     3.1748    11.6368 </r>
       <r>     1.3838     2.9537    11.8205 </r>
       <r>     1.4438     2.6871    11.9897 </r>
       <r>     1.5037     2.4668    12.1435 </r>
       <r>     1.5636     2.3725    12.2879 </r>
       <r>     1.6235     2.4043    12.4303 </r>
       <r>     1.6834     2.5621    12.5785 </r>
       <r>     1.7433     2.8460    12.7399 </r>
       <r>     1.8033     3.2113    12.9168 </r>
       <r>     1.8632     3.8176    13.1528 </r>
       <r>     1.9231     3.1348    13.3600 </r>
       <r>     1.9830     2.6701    13.5328 </r>
       <r>     2.0429     2.3814    13.6839 </r>
       <r>     2.1028     2.0748    13.8174 </r>
       <r>     2.1628     1.8712    13.9350 </r>
       <r>     2.2227     1.7743    14.0437 </r>
       <r>     2.2826     1.7842    14.1498 </r>
       <r>     2.3425     2.1857    14.2643 </r>
       <r>     2.4024     2.9216    14.4169 </r>
       <r>     2.4623     3.7422    14.6161 </r>
       <r>     2.5223     4.6601    14.8670 </r>
       <r>     2.5822     5.7203    15.1906 </r>
       <r>     2.6421     3.9541    15.4893 </r>
       <r>     2.7020     2.1247    15.6686 </r>
       <r>     2.7619     1.0922    15.7572 </r>
       <r>     2.8219     0.9303    15.8175 </r>
       <r>     2.8818     0.8236    15.8698 </r>
       <r>     2.9417     0.7719    15.9173 </r>
       <r>     3.0016     0.7754    15.9634 </r>
       <r>     3.0615     0.8340    16.0113 </r>
       <r>     3.1214     0.9477    16.0644 </r>
       <r>     3.1814     1.4790    16.1307 </r>
       <r>     3.2413     2.3958    16.2476 </r>
       <r>     3.3012     3.1499    16.4145 </r>
       <r>     3.3611     4.6428    16.6449 </r>
       <r>     3.4210     4.3195    16.9100 </r>
       <r>     3.4809     6.3794    17.2357 </r>
       <r>     3.5409     5.3054    17.5935 </r>
       <r>     3.6008     3.9016    17.8597 </r>
       <r>     3.6607     3.3033    18.0743 </r>
       <r>     3.7206     2.9333    18.2603 </r>
       <r>     3.7805     2.6357    18.4270 </r>
       <r>     3.8404     2.3776    18.5770 </r>
       <r>     3.9004     2.1590    18.7127 </r>
       <r>     3.9603     1.9799    18.8365 </r>
       <r>     4.0202     1.8256    18.9504 </r>
       <r>     4.0801     1.6770    19.0554 </r>
       <r>     4.1400     1.6391    19.1524 </r>
       <r>     4.1999     1.6175    19.2519 </r>
       <r>     4.2599     1.2816    19.3398 </r>
       <r>     4.3198     0.9766    19.4069 </r>
       <r>     4.3797     0.7877    19.4591 </r>
       <r>     4.4396     0.7926    19.5045 </r>
       <r>     4.4995     1.1149    19.5606 </r>
       <r>     4.5594     1.6034    19.6413 </r>
       <r>     4.6194     2.8214    19.7620 </r>
       <r>     4.6793     2.8816    19.9429 </r>
       <r>     4.7392     2.4875    20.1036 </r>
       <r>     4.7991     2.1162    20.2414 </r>
       <r>     4.8590     2.0099    20.3646 </r>
       <r>     4.9189     1.9186    20.4823 </r>
       <r>     4.9789     1.8289    20.5946 </r>
       <r>     5.0388     2.0435    20.7092 </r>
       <r>     5.0987     2.3653    20.8409 </r>
       <r>     5.1586     2.7509    20.9939 </r>
       <r>     5.2185     2.8530    21.1637 </r>
       <r>     5.2785     2.8666    21.3351 </r>
       <r>     5.3384     2.8709    21.5070 </r>
       <r>     5.3983     2.8659    21.6789 </r>
       <r>     5.4582     2.8516    21.8503 </r>
       <r>     5.5181     2.8281    22.0205 </r>
       <r>     5.5780     2.7952    22.1890 </r>
       <r>     5.6380     2.7530    22.3553 </r>
       <r>     5.6979     2.7016    22.5187 </r>
       <r>     5.7578     2.9293    22.6839 </r>
       <r>     5.8177     2.8430    22.8583 </r>
       <r>     5.8776     2.6775    23.0240 </r>
       <r>     5.9375     2.3392    23.1753 </r>
       <r>     5.9975     1.8627    23.3005 </r>
       <r>     6.0574     1.4751    23.4002 </r>
       <r>     6.1173     1.1425    23.4787 </r>
       <r>     6.1772     0.9204    23.5374 </r>
       <r>     6.2371     0.8370    23.5900 </r>
       <r>     6.2970     0.7586    23.6378 </r>
       <r>     6.3570     0.6850    23.6810 </r>
       <r>     6.4169     0.6163    23.7200 </r>
       <r>     6.4768     0.5525    23.7550 </r>
       <r>     6.5367     0.4935    23.7863 </r>
       <r>     6.5966     0.4395    23.8142 </r>
       <r>     6.6565     0.3902    23.8391 </r>
       <r>     6.7165     0.3459    23.8611 </r>
       <r>     6.7764     0.3065    23.8806 </r>
       <r>     6.8363     0.2718    23.8979 </r>
       <r>     6.8962     0.2400    23.9132 </r>
       <r>     6.9561     0.2104    23.9267 </r>
       <r>     7.0160     0.1829    23.9385 </r>
       <r>     7.0760     0.1575    23.9487 </r>
       <r>     7.1359     0.1343    23.9574 </r>
       <r>     7.1958     0.1132    23.9648 </r>
       <r>     7.2557     0.0943    23.9710 </r>
       <r>     7.3156     0.0774    23.9762 </r>
       <r>     7.3756     0.0628    23.9803 </r>
       <r>     7.4355     0.0503    23.9837 </r>
       <r>     7.4954     0.0399    23.9864 </r>
       <r>     7.5553     0.0316    23.9885 </r>
       <r>     7.6152     0.0255    23.9902 </r>
       <r>     7.6751     0.0215    23.9916 </r>
       <r>     7.7351     0.0192    23.9929 </r>
       <r>     7.7950     0.0171    23.9939 </r>
       <r>     7.8549     0.0152    23.9949 </r>
       <r>     7.9148     0.0133    23.9958 </r>
       <r>     7.9747     0.0116    23.9965 </r>
       <r>     8.0346     0.0100    23.9972 </r>
       <r>     8.0946     0.0086    23.9977 </r>
       <r>     8.1545     0.0073    23.9982 </r>
       <r>     8.2144     0.0061    23.9986 </r>
       <r>     8.2743     0.0050    23.9989 </r>
       <r>     8.3342     0.0040    23.9992 </r>
       <r>     8.3941     0.0032    23.9994 </r>
       <r>     8.4541     0.0025    23.9996 </r>
       <r>     8.5140     0.0019    23.9997 </r>
       <r>     8.5739     0.0015    23.9998 </r>
       <r>     8.6338     0.0010    23.9999 </r>
       <r>     8.6937     0.0007    23.9999 </r>
       <r>     8.7536     0.0004    24.0000 </r>
       <r>     8.8136     0.0002    24.0000 </r>
       <r>     8.8735     0.0001    24.0000 </r>
       <r>     8.9334     0.0000    24.0000 </r>
       <r>     8.9933     0.0000    24.0000 </r>
       <r>     9.0532     0.0000    24.0000 </r>
       <r>     9.1131     0.0000    24.0000 </r>
       <r>     9.1731     0.0000    24.0000 </r>
       <r>     9.2330     0.0000    24.0000 </r>
       <r>     9.2929     0.0000    24.0000 </r>
       <r>     9.3528     0.0000    24.0000 </r>
       <r>     9.4127     0.0000    24.0000 </r>
       <r>     9.4727     0.0000    24.0000 </r>
       <r>     9.5326     0.0000    24.0000 </r>
       <r>     9.5925     0.0000    24.0000 </r>
       <r>     9.6524     0.0000    24.0000 </r>
       <r>     9.7123     0.0000    24.0000 </r>
       <r>     9.7722     0.0000    24.0000 </r>
      </set>
     </set>
    </array>
   </total>
   <partial>
    <array>
     <dimension dim="1">gridpoints</dimension>
     <dimension dim="2">spin</dimension>
     <dimension dim="3">ion</dimension>
     <field>energy</field>
     <field>  s</field>
     <field> py</field>
     <field> pz</field>
     <field> px</field>
     <field>dxy</field>
     <field>dyz</field>
     <field>dz2</field>
     <field>dxz</field>
     <field>dx2</field>
     <set>
      <set comment="ion 1">
       <set comment="spin 1">
        <r>    -8.2029     0.0000     0.0000     0.0000     0.0000     0.0000     0.0000     0.0000     0.0000     0.0000 </r>
        <r>    -8.1430     0.0000     0.0000     0.0000     0.0000     0.0000     0.0000     0.0000     0.0000     0.0000 </r>
        <r>    -8.0831     0.0000     0.0000     0.0000     0.0000     0.0000     0.0000     0.0000     0.0000     0.0000 </r>
        <r>    -8.0231     0.0000     0.0000     0.0000     0.0000     0.0000     0.0000     0.0000     0.0000     0.0000 </r>
        <r>    -7.9632     0.0000     0.0000     0.0000     0.0000     0.0000     0.0000     0.0000     0.0000     0.0000 </r>
        <r>    -7.9033     0.0000     0.0000     0.0000     0.0000     0.0000     0.0000     0.0000     0.0000     0.0000 </r>
        <r>    -7.8434     0.0000     0.0000     0.0000     0.0000     0.0000     0.0000     0.0000     0.0000     0.0000 </r>
        <r>    -7.7835     0.0000     0.0000     0.0000     0.0000     0.0000     0.0000     0.0000     0.0000     0.0000 </r>
        <r>    -7.7236     0.0000     0.0000     0.0000     0.0000     0.0000     0.0000     0.0000     0.0000     0.0000 </r>
        <r>    -7.6636     0.0000     0.0000     0.0000     0.0000     0.0000     0.0000     0.0000     0.0000     0.0000 </r>
        <r>    -7.6037     0.0000     0.0000     0.0000     0.0000     0.0000     0.0000     0.0000     0.0000     0.0000 </r>
        <r>    -7.5438     0.0000     0.0000     0.0000     0.0000     0.0000     0.0000     0.0000     0.0000     0.0000 </r>
        <r>    -7.4839     0.0000     0.0000     0.0000     0.0000     0.0000     0.0000     0.0000     0.0000     0.0000 </r>
        <r>    -7.4240     0.0000     0.0000     0.0000     0.0000     0.0000     0.0000     0.0000     0.0000     0.0000 </r>
        <r>    -7.3641     0.0004     0.0000     0.0000     0.0000     0.0000     0.0000     0.0000     0.0000     0.0000 </r>
        <r>    -7.3041     0.0055     0.0001     0.0001     0.0002     0.0000     0.0000     0.0000     0.0000     0.0000 </r>
        <r>    -7.2442     0.0166     0.0004     0.0004     0.0005     0.0000     0.0000     0.0000     0.0000     0.0000 </r>
        <r>    -7.1843     0.0336     0.0008     0.0007     0.0011     0.0000     0.0000     0.0000     0.0000     0.0000 </r>
        <r>    -7.1244     0.0563     0.0015     0.0012     0.0019     0.0000     0.0000     0.0000     0.0000     0.0000 </r>
        <r>    -7.0645     0.0814     0.0023     0.0018     0.0029     0.0000     0.0000     0.0000     0.0000     0.0000 </r>
        <r>    -7.0046     0.1075     0.0032     0.0024     0.0042     0.0000     0.0000     0.0000     0.0000     0.0000 </r>
        <r>    -6.9446     0.1347     0.0041     0.0031     0.0055     0.0000     0.0000     0.0000     0.0000     0.0000 </r>
        <r>    -6.8847     0.1631     0.0051     0.0039     0.0071     0.0000     0.0000     0.0000     0.0000     0.0000 </r>
        <r>    -6.8248     0.1946     0.0063     0.0047     0.0090     0.0000     0.0000     0.0000     0.0000     0.0000 </r>
        <r>    -6.7649     0.2239     0.0076     0.0056     0.0109     0.0000     0.0000     0.0000     0.0000     0.0000 </r>
        <r>    -6.7050     0.2418     0.0085     0.0062     0.0122     0.0000     0.0000     0.0000     0.0000     0.0000 </r>
        <r>    -6.6451     0.2481     0.0090     0.0066     0.0128     0.0000     0.0000     0.0000     0.0000     0.0000 </r>
        <r>    -6.5851     0.2425     0.0092     0.0068     0.0128     0.0000     0.0000     0.0000     0.0000     0.0000 </r>
        <r>    -6.5252     0.2299     0.0092     0.0066     0.0124     0.0000     0.0000     0.0000     0.0000     0.0000 </r>
        <r>    -6.4653     0.2130     0.0089     0.0063     0.0118     0.0000     0.0000     0.0000     0.0000     0.0000 </r>
        <r>    -6.4054     0.1917     0.0084     0.0059     0.0108     0.0000     0.0000     0.0000     0.0000     0.0000 </r>
        <r>    -6.3455     0.1659     0.0076     0.0053     0.0094     0.0000     0.0000     0.0000     0.0000     0.0000 </r>
        <r>    -6.2856     0.1339     0.0063     0.0045     0.0077     0.0000     0.0000     0.0000     0.0000     0.0000 </r>
        <r>    -6.2256     0.1001     0.0048     0.0035     0.0058     0.0000     0.0000     0.0000     0.0000     0.0000 </r>
        <r>    -6.1657     0.0722     0.0035     0.0027     0.0042     0.0000     0.0000     0.0000     0.0000     0.0000 </r>
        <r>    -6.1058     0.0502     0.0025     0.0020     0.0029     0.0000     0.0000     0.0000     0.0000     0.0000 </r>
        <r>    -6.0459     0.0339     0.0018     0.0014     0.0020     0.0000     0.0000     0.0000     0.0000     0.0000 </r>
        <r>    -5.9860     0.0208     0.0011     0.0009     0.0012     0.0000     0.0000     0.0000     0.0000     0.0000 </r>
        <r>    -5.9261     0.0108     0.0006     0.0005     0.0006     0.0000     0.0000     0.0000     0.0000     0.0000 </r>
        <r>    -5.8661     0.0041     0.0002     0.0002     0.0002     0.0000     0.0000     0.0000     0.0000     0.0000 </r>
        <r>    -5.8062     0.0006     0.0000     0.0000     0.0000     0.0000     0.0000     0.0000     0.0000     0.0000 </r>
        <r>    -5.7463     0.0000     0.0000     0.0000     0.0000     0.0000     0.0000     0.0000     0.0000     0.0000 </r>
        <r>    -5.6864     0.0000     0.0000     0.0000     0.0000     0.0000     0.0000     0.0000     0.0000     0.0000 </r>
        <r>    -5.6265     0.0000     0.0000     0.0000     0.0000     0.0000     0.0000     0.0000     0.0000     0.0000 </r>
        <r>    -5.5665     0.0000     0.0000     0.0000     0.0000     0.0000     0.0000     0.0000     0.0000     0.0000 </r>
        <r>    -5.5066     0.0000     0.0000     0.0000     0.0000     0.0000     0.0000     0.0000     0.0000     0.0000 </r>
        <r>    -5.4467     0.0000     0.0000     0.0000     0.0000     0.0000     0.0000     0.0000     0.0000     0.0000 </r>
        <r>    -5.3868     0.0000     0.0000     0.0000     0.0000     0.0000     0.0000     0.0000     0.0000     0.0000 </r>
        <r>    -5.3269     0.0000     0.0000     0.0000     0.0000     0.0000     0.0000     0.0000     0.0000     0.0000 </r>
        <r>    -5.2670     0.0000     0.0000     0.0000     0.0000     0.0000     0.0000     0.0000     0.0000     0.0000 </r>
        <r>    -5.2070     0.0000     0.0000     0.0000     0.0000     0.0000     0.0000     0.0000     0.0000     0.0000 </r>
        <r>    -5.1471     0.0000     0.0000     0.0000     0.0000     0.0000     0.0000     0.0000     0.0000     0.0000 </r>
        <r>    -5.0872     0.0000     0.0000     0.0000     0.0000     0.0000     0.0000     0.0000     0.0000     0.0000 </r>
        <r>    -5.0273     0.0000     0.0000     0.0000     0.0000     0.0000     0.0000     0.0000     0.0000     0.0000 </r>
        <r>    -4.9674     0.0000     0.0000     0.0000     0.0000     0.0000     0.0000     0.0000     0.0000     0.0000 </r>
        <r>    -4.9075     0.0000     0.0000     0.0000     0.0000     0.0000     0.0000     0.0000     0.0000     0.0000 </r>
        <r>    -4.8475     0.0000     0.0000     0.0000     0.0000     0.0000     0.0000     0.0000     0.0000     0.0000 </r>
        <r>    -4.7876     0.0000     0.0000     0.0000     0.0000     0.0000     0.0000     0.0000     0.0000     0.0000 </r>
        <r>    -4.7277     0.0000     0.0000     0.0000     0.0000     0.0000     0.0000     0.0000     0.0000     0.0000 </r>
        <r>    -4.6678     0.0000     0.0000     0.0000     0.0000     0.0000     0.0000     0.0000     0.0000     0.0000 </r>
        <r>    -4.6079     0.0000     0.0000     0.0000     0.0000     0.0000     0.0000     0.0000     0.0000     0.0000 </r>
        <r>    -4.5480     0.0000     0.0000     0.0000     0.0000     0.0000     0.0000     0.0000     0.0000     0.0000 </r>
        <r>    -4.4880     0.0000     0.0000     0.0000     0.0000     0.0000     0.0000     0.0000     0.0000     0.0000 </r>
        <r>    -4.4281     0.0000     0.0000     0.0000     0.0000     0.0000     0.0000     0.0000     0.0000     0.0000 </r>
        <r>    -4.3682     0.0000     0.0000     0.0000     0.0000     0.0000     0.0000     0.0000     0.0000     0.0000 </r>
        <r>    -4.3083     0.0000     0.0000     0.0000     0.0000     0.0000     0.0000     0.0000     0.0000     0.0000 </r>
        <r>    -4.2484     0.0007     0.0000     0.0000     0.0000     0.0000     0.0000     0.0000     0.0000     0.0000 </r>
        <r>    -4.1885     0.0067     0.0001     0.0001     0.0004     0.0000     0.0000     0.0000     0.0000     0.0000 </r>
        <r>    -4.1285     0.0191     0.0002     0.0001     0.0012     0.0000     0.0000     0.0000     0.0000     0.0000 </r>
        <r>    -4.0686     0.0378     0.0004     0.0003     0.0023     0.0000     0.0000     0.0000     0.0000     0.0000 </r>
        <r>    -4.0087     0.0880     0.0011     0.0007     0.0052     0.0000     0.0000     0.0000     0.0000     0.0000 </r>
        <r>    -3.9488     0.1563     0.0018     0.0013     0.0086     0.0000     0.0000     0.0000     0.0000     0.0000 </r>
        <r>    -3.8889     0.2214     0.0025     0.0018     0.0113     0.0000     0.0000     0.0000     0.0000     0.0000 </r>
        <r>    -3.8290     0.2834     0.0030     0.0024     0.0133     0.0000     0.0000     0.0000     0.0000     0.0000 </r>
        <r>    -3.7690     0.3317     0.0033     0.0028     0.0135     0.0000     0.0000     0.0000     0.0000     0.0000 </r>
        <r>    -3.7091     0.3679     0.0034     0.0030     0.0133     0.0000     0.0000     0.0000     0.0000     0.0000 </r>
        <r>    -3.6492     0.3918     0.0036     0.0031     0.0128     0.0000     0.0000     0.0000     0.0000     0.0000 </r>
        <r>    -3.5893     0.4026     0.0039     0.0031     0.0123     0.0000     0.0000     0.0000     0.0000     0.0000 </r>
        <r>    -3.5294     0.4004     0.0044     0.0030     0.0116     0.0000     0.0000     0.0000     0.0000     0.0000 </r>
        <r>    -3.4694     0.3757     0.0058     0.0029     0.0120     0.0000     0.0000     0.0000     0.0000     0.0000 </r>
        <r>    -3.4095     0.3505     0.0071     0.0030     0.0123     0.0000     0.0000     0.0000     0.0000     0.0000 </r>
        <r>    -3.3496     0.3270     0.0082     0.0031     0.0125     0.0000     0.0000     0.0000     0.0000     0.0000 </r>
        <r>    -3.2897     0.3698     0.0097     0.0037     0.0154     0.0000     0.0000     0.0000     0.0000     0.0000 </r>
        <r>    -3.2298     0.3988     0.0109     0.0041     0.0169     0.0000     0.0000     0.0000     0.0000     0.0000 </r>
        <r>    -3.1699     0.3575     0.0110     0.0042     0.0142     0.0000     0.0000     0.0000     0.0000     0.0000 </r>
        <r>    -3.1099     0.2312     0.0104     0.0038     0.0109     0.0000     0.0000     0.0000     0.0000     0.0000 </r>
        <r>    -3.0500     0.1788     0.0122     0.0045     0.0110     0.0000     0.0000     0.0000     0.0000     0.0000 </r>
        <r>    -2.9901     0.2246     0.0171     0.0063     0.0143     0.0000     0.0000     0.0000     0.0000     0.0000 </r>
        <r>    -2.9302     0.2998     0.0213     0.0081     0.0166     0.0000     0.0000     0.0000     0.0000     0.0000 </r>
        <r>    -2.8703     0.3984     0.0249     0.0098     0.0177     0.0000     0.0000     0.0000     0.0000     0.0000 </r>
        <r>    -2.8104     0.4262     0.0214     0.0108     0.0143     0.0000     0.0000     0.0000     0.0000     0.0000 </r>
        <r>    -2.7504     0.1875     0.0093     0.0065     0.0063     0.0000     0.0000     0.0000     0.0000     0.0000 </r>
        <r>    -2.6905     0.2099     0.0116     0.0087     0.0069     0.0000     0.0000     0.0000     0.0000     0.0000 </r>
        <r>    -2.6306     0.1900     0.0083     0.0051     0.0055     0.0000     0.0000     0.0000     0.0000     0.0000 </r>
        <r>    -2.5707     0.1907     0.0081     0.0051     0.0053     0.0000     0.0000     0.0000     0.0000     0.0000 </r>
        <r>    -2.5108     0.1916     0.0078     0.0051     0.0050     0.0000     0.0000     0.0000     0.0000     0.0000 </r>
        <r>    -2.4509     0.1926     0.0076     0.0051     0.0048     0.0000     0.0000     0.0000     0.0000     0.0000 </r>
        <r>    -2.3909     0.1937     0.0074     0.0051     0.0046     0.0000     0.0000     0.0000     0.0000     0.0000 </r>
        <r>    -2.3310     0.1950     0.0071     0.0051     0.0043     0.0000     0.0000     0.0000     0.0000     0.0000 </r>
        <r>    -2.2711     0.1964     0.0069     0.0051     0.0041     0.0000     0.0000     0.0000     0.0000     0.0000 </r>
        <r>    -2.2112     0.1979     0.0067     0.0052     0.0039     0.0000     0.0000     0.0000     0.0000     0.0000 </r>
        <r>    -2.1513     0.1994     0.0065     0.0052     0.0037     0.0000     0.0000     0.0000     0.0000     0.0000 </r>
        <r>    -2.0914     0.1979     0.0062     0.0052     0.0034     0.0000     0.0000     0.0000     0.0000     0.0000 </r>
        <r>    -2.0314     0.1925     0.0060     0.0051     0.0032     0.0000     0.0000     0.0000     0.0000     0.0000 </r>
        <r>    -1.9715     0.1832     0.0057     0.0050     0.0029     0.0000     0.0000     0.0000     0.0000     0.0000 </r>
        <r>    -1.9116     0.1704     0.0054     0.0049     0.0026     0.0000     0.0000     0.0000     0.0000     0.0000 </r>
        <r>    -1.8517     0.1581     0.0056     0.0058     0.0020     0.0000     0.0000     0.0000     0.0000     0.0000 </r>
        <r>    -1.7918     0.6043     0.0109     0.0190     0.0016     0.0000     0.0000     0.0000     0.0000     0.0000 </r>
        <r>    -1.7319     0.0614     0.0011     0.0017     0.0002     0.0000     0.0000     0.0000     0.0000     0.0000 </r>
        <r>    -1.6719     0.0016     0.0000     0.0000     0.0000     0.0000     0.0000     0.0000     0.0000     0.0000 </r>
        <r>    -1.6120     0.0000     0.0000     0.0000     0.0000     0.0000     0.0000     0.0000     0.0000     0.0000 </r>
        <r>    -1.5521     0.0000     0.0000     0.0000     0.0000     0.0000     0.0000     0.0000     0.0000     0.0000 </r>
        <r>    -1.4922     0.0000     0.0000     0.0000     0.0000     0.0000     0.0000     0.0000     0.0000     0.0000 </r>
        <r>    -1.4323     0.0000     0.0000     0.0000     0.0000     0.0000     0.0000     0.0000     0.0000     0.0000 </r>
        <r>    -1.3723     0.0000     0.0000     0.0000     0.0000     0.0000     0.0000     0.0000     0.0000     0.0000 </r>
        <r>    -1.3124     0.0000     0.0000     0.0000     0.0000     0.0000     0.0000     0.0000     0.0000     0.0000 </r>
        <r>    -1.2525     0.0000     0.0000     0.0000     0.0000     0.0000     0.0000     0.0000     0.0000     0.0000 </r>
        <r>    -1.1926     0.0000     0.0000     0.0000     0.0000     0.0000     0.0000     0.0000     0.0000     0.0000 </r>
        <r>    -1.1327     0.0000     0.0000     0.0000     0.0000     0.0000     0.0000     0.0000     0.0000     0.0000 </r>
        <r>    -1.0728     0.0000     0.0000     0.0000     0.0000     0.0000     0.0000     0.0000     0.0000     0.0000 </r>
        <r>    -1.0128     0.0000     0.0000     0.0000     0.0000     0.0000     0.0000     0.0000     0.0000     0.0000 </r>
        <r>    -0.9529     0.0000     0.0000     0.0000     0.0000     0.0000     0.0000     0.0000     0.0000     0.0000 </r>
        <r>    -0.8930     0.0000     0.0000     0.0000     0.0000     0.0000     0.0000     0.0000     0.0000     0.0000 </r>
        <r>    -0.8331     0.0000     0.0000     0.0000     0.0000     0.0000     0.0000     0.0000     0.0000     0.0000 </r>
        <r>    -0.7732     0.0000     0.0000     0.0000     0.0000     0.0000     0.0000     0.0000     0.0000     0.0000 </r>
        <r>    -0.7133     0.0000     0.0000     0.0000     0.0000     0.0000     0.0000     0.0000     0.0000     0.0000 </r>
        <r>    -0.6533     0.0000     0.0000     0.0000     0.0000     0.0000     0.0000     0.0000     0.0000     0.0000 </r>
        <r>    -0.5934     0.0000     0.0000     0.0000     0.0000     0.0000     0.0000     0.0000     0.0000     0.0000 </r>
        <r>    -0.5335     0.0000     0.0000     0.0000     0.0000     0.0000     0.0000     0.0000     0.0000     0.0000 </r>
        <r>    -0.4736     0.0000     0.0000     0.0000     0.0000     0.0000     0.0000     0.0000     0.0000     0.0000 </r>
        <r>    -0.4137     0.0000     0.0000     0.0000     0.0000     0.0000     0.0000     0.0000     0.0000     0.0000 </r>
        <r>    -0.3538     0.0000     0.0000     0.0000     0.0000     0.0000     0.0000     0.0000     0.0000     0.0000 </r>
        <r>    -0.2938     0.0000     0.0000     0.0000     0.0000     0.0000     0.0000     0.0000     0.0000     0.0000 </r>
        <r>    -0.2339     0.0000     0.0000     0.0000     0.0000     0.0000     0.0000     0.0000     0.0000     0.0000 </r>
        <r>    -0.1740     0.0000     0.0000     0.0000     0.0000     0.0000     0.0000     0.0000     0.0000     0.0000 </r>
        <r>    -0.1141     0.0000     0.0001     0.0001     0.0000     0.0000     0.0000     0.0000     0.0000     0.0000 </r>
        <r>    -0.0542     0.0011     0.0011     0.0013     0.0015     0.0000     0.0000     0.0000     0.0000     0.0000 </r>
        <r>     0.0057     0.0056     0.0045     0.0051     0.0073     0.0000     0.0000     0.0000     0.0000     0.0000 </r>
        <r>     0.0657     0.0086     0.0066     0.0081     0.0104     0.0000     0.0000     0.0000     0.0000     0.0000 </r>
        <r>     0.1256     0.0106     0.0079     0.0107     0.0118     0.0000     0.0000     0.0000     0.0000     0.0000 </r>
        <r>     0.1855     0.0128     0.0095     0.0141     0.0133     0.0000     0.0000     0.0000     0.0000     0.0000 </r>
        <r>     0.2454     0.0152     0.0115     0.0183     0.0150     0.0000     0.0000     0.0000     0.0000     0.0000 </r>
        <r>     0.3053     0.0181     0.0137     0.0243     0.0167     0.0000     0.0000     0.0000     0.0000     0.0000 </r>
        <r>     0.3652     0.0222     0.0166     0.0331     0.0188     0.0000     0.0000     0.0000     0.0000     0.0000 </r>
        <r>     0.4252     0.0276     0.0206     0.0445     0.0215     0.0000     0.0000     0.0000     0.0000     0.0000 </r>
        <r>     0.4851     0.0342     0.0256     0.0587     0.0250     0.0000     0.0000     0.0000     0.0000     0.0000 </r>
        <r>     0.5450     0.0421     0.0311     0.0749     0.0290     0.0000     0.0000     0.0000     0.0000     0.0000 </r>
        <r>     0.6049     0.0505     0.0357     0.0910     0.0325     0.0000     0.0000     0.0000     0.0000     0.0000 </r>
        <r>     0.6648     0.0590     0.0393     0.1076     0.0360     0.0000     0.0000     0.0000     0.0000     0.0000 </r>
        <r>     0.7248     0.0699     0.0469     0.1345     0.0404     0.0000     0.0000     0.0000     0.0000     0.0000 </r>
        <r>     0.7847     0.0834     0.0631     0.1713     0.0471     0.0000     0.0000     0.0000     0.0000     0.0000 </r>
        <r>     0.8446     0.0871     0.0742     0.1866     0.0527     0.0000     0.0000     0.0000     0.0000     0.0000 </r>
        <r>     0.9045     0.0804     0.0761     0.1766     0.0557     0.0000     0.0000     0.0000     0.0000     0.0000 </r>
        <r>     0.9644     0.0639     0.0752     0.1493     0.0537     0.0000     0.0000     0.0000     0.0000     0.0000 </r>
        <r>     1.0243     0.0367     0.0729     0.1047     0.0457     0.0000     0.0000     0.0000     0.0000     0.0000 </r>
        <r>     1.0843     0.0150     0.0738     0.0798     0.0430     0.0000     0.0000     0.0000     0.0000     0.0000 </r>
        <r>     1.1442     0.0151     0.0807     0.0834     0.0491     0.0000     0.0000     0.0000     0.0000     0.0000 </r>
        <r>     1.2041     0.0168     0.0962     0.0906     0.0623     0.0000     0.0000     0.0000     0.0000     0.0000 </r>
        <r>     1.2640     0.0174     0.0883     0.0805     0.0600     0.0000     0.0000     0.0000     0.0000     0.0000 </r>
        <r>     1.3239     0.0182     0.0820     0.0715     0.0585     0.0000     0.0000     0.0000     0.0000     0.0000 </r>
        <r>     1.3838     0.0193     0.0764     0.0633     0.0571     0.0000     0.0000     0.0000     0.0000     0.0000 </r>
        <r>     1.4438     0.0209     0.0697     0.0549     0.0534     0.0000     0.0000     0.0000     0.0000     0.0000 </r>
        <r>     1.5037     0.0245     0.0639     0.0477     0.0497     0.0000     0.0000     0.0000     0.0000     0.0000 </r>
        <r>     1.5636     0.0312     0.0608     0.0431     0.0480     0.0000     0.0000     0.0000     0.0000     0.0000 </r>
        <r>     1.6235     0.0412     0.0604     0.0410     0.0482     0.0000     0.0000     0.0000     0.0000     0.0000 </r>
        <r>     1.6834     0.0544     0.0628     0.0415     0.0504     0.0000     0.0000     0.0000     0.0000     0.0000 </r>
        <r>     1.7433     0.0707     0.0678     0.0445     0.0546     0.0000     0.0000     0.0000     0.0000     0.0000 </r>
        <r>     1.8033     0.0980     0.0703     0.0486     0.0587     0.0000     0.0000     0.0000     0.0000     0.0000 </r>
        <r>     1.8632     0.1250     0.0793     0.0575     0.0714     0.0000     0.0000     0.0000     0.0000     0.0000 </r>
        <r>     1.9231     0.1028     0.0600     0.0443     0.0679     0.0000     0.0000     0.0000     0.0000     0.0000 </r>
        <r>     1.9830     0.0888     0.0463     0.0350     0.0660     0.0000     0.0000     0.0000     0.0000     0.0000 </r>
        <r>     2.0429     0.0809     0.0377     0.0288     0.0651     0.0000     0.0000     0.0000     0.0000     0.0000 </r>
        <r>     2.1028     0.0706     0.0307     0.0239     0.0616     0.0000     0.0000     0.0000     0.0000     0.0000 </r>
        <r>     2.1628     0.0604     0.0293     0.0234     0.0586     0.0000     0.0000     0.0000     0.0000     0.0000 </r>
        <r>     2.2227     0.0497     0.0338     0.0271     0.0563     0.0000     0.0000     0.0000     0.0000     0.0000 </r>
        <r>     2.2826     0.0385     0.0442     0.0348     0.0546     0.0000     0.0000     0.0000     0.0000     0.0000 </r>
        <r>     2.3425     0.0379     0.0634     0.0486     0.0669     0.0000     0.0000     0.0000     0.0000     0.0000 </r>
        <r>     2.4024     0.0438     0.0900     0.0686     0.0914     0.0000     0.0000     0.0000     0.0000     0.0000 </r>
        <r>     2.4623     0.0510     0.1176     0.0916     0.1174     0.0000     0.0000     0.0000     0.0000     0.0000 </r>
        <r>     2.5223     0.0596     0.1467     0.1182     0.1452     0.0000     0.0000     0.0000     0.0000     0.0000 </r>
        <r>     2.5822     0.0713     0.1773     0.1558     0.1708     0.0000     0.0000     0.0000     0.0000     0.0000 </r>
        <r>     2.6421     0.0475     0.1176     0.1019     0.1230     0.0000     0.0000     0.0000     0.0000     0.0000 </r>
        <r>     2.7020     0.0238     0.0590     0.0474     0.0753     0.0000     0.0000     0.0000     0.0000     0.0000 </r>
        <r>     2.7619     0.0112     0.0286     0.0195     0.0485     0.0000     0.0000     0.0000     0.0000     0.0000 </r>
        <r>     2.8219     0.0091     0.0247     0.0173     0.0404     0.0000     0.0000     0.0000     0.0000     0.0000 </r>
        <r>     2.8818     0.0075     0.0223     0.0165     0.0338     0.0000     0.0000     0.0000     0.0000     0.0000 </r>
        <r>     2.9417     0.0064     0.0214     0.0171     0.0288     0.0000     0.0000     0.0000     0.0000     0.0000 </r>
        <r>     3.0016     0.0057     0.0220     0.0191     0.0253     0.0000     0.0000     0.0000     0.0000     0.0000 </r>
        <r>     3.0615     0.0054     0.0241     0.0226     0.0234     0.0000     0.0000     0.0000     0.0000     0.0000 </r>
        <r>     3.1214     0.0056     0.0277     0.0274     0.0230     0.0000     0.0000     0.0000     0.0000     0.0000 </r>
        <r>     3.1814     0.0070     0.0434     0.0492     0.0297     0.0000     0.0000     0.0000     0.0000     0.0000 </r>
        <r>     3.2413     0.0097     0.0699     0.0867     0.0443     0.0000     0.0000     0.0000     0.0000     0.0000 </r>
        <r>     3.3012     0.0123     0.0909     0.1163     0.0588     0.0000     0.0000     0.0000     0.0000     0.0000 </r>
        <r>     3.3611     0.0220     0.1289     0.1564     0.0947     0.0000     0.0000     0.0000     0.0000     0.0000 </r>
        <r>     3.4210     0.0241     0.1181     0.1242     0.0830     0.0000     0.0000     0.0000     0.0000     0.0000 </r>
        <r>     3.4809     0.0237     0.1721     0.1415     0.1039     0.0000     0.0000     0.0000     0.0000     0.0000 </r>
        <r>     3.5409     0.0231     0.1383     0.1124     0.0865     0.0000     0.0000     0.0000     0.0000     0.0000 </r>
        <r>     3.6008     0.0209     0.0974     0.0847     0.0629     0.0000     0.0000     0.0000     0.0000     0.0000 </r>
        <r>     3.6607     0.0191     0.0802     0.0714     0.0523     0.0000     0.0000     0.0000     0.0000     0.0000 </r>
        <r>     3.7206     0.0184     0.0705     0.0628     0.0464     0.0000     0.0000     0.0000     0.0000     0.0000 </r>
        <r>     3.7805     0.0178     0.0629     0.0555     0.0420     0.0000     0.0000     0.0000     0.0000     0.0000 </r>
        <r>     3.8404     0.0173     0.0564     0.0490     0.0385     0.0000     0.0000     0.0000     0.0000     0.0000 </r>
        <r>     3.9004     0.0168     0.0510     0.0433     0.0360     0.0000     0.0000     0.0000     0.0000     0.0000 </r>
        <r>     3.9603     0.0164     0.0466     0.0385     0.0343     0.0000     0.0000     0.0000     0.0000     0.0000 </r>
        <r>     4.0202     0.0161     0.0430     0.0343     0.0333     0.0000     0.0000     0.0000     0.0000     0.0000 </r>
        <r>     4.0801     0.0159     0.0395     0.0301     0.0325     0.0000     0.0000     0.0000     0.0000     0.0000 </r>
        <r>     4.1400     0.0169     0.0384     0.0280     0.0336     0.0000     0.0000     0.0000     0.0000     0.0000 </r>
        <r>     4.1999     0.0177     0.0377     0.0264     0.0341     0.0000     0.0000     0.0000     0.0000     0.0000 </r>
        <r>     4.2599     0.0137     0.0298     0.0205     0.0280     0.0000     0.0000     0.0000     0.0000     0.0000 </r>
        <r>     4.3198     0.0100     0.0226     0.0157     0.0225     0.0000     0.0000     0.0000     0.0000     0.0000 </r>
        <r>     4.3797     0.0078     0.0178     0.0134     0.0193     0.0000     0.0000     0.0000     0.0000     0.0000 </r>
        <r>     4.4396     0.0073     0.0172     0.0176     0.0191     0.0000     0.0000     0.0000     0.0000     0.0000 </r>
        <r>     4.4995     0.0100     0.0225     0.0327     0.0266     0.0000     0.0000     0.0000     0.0000     0.0000 </r>
        <r>     4.5594     0.0147     0.0302     0.0529     0.0410     0.0000     0.0000     0.0000     0.0000     0.0000 </r>
        <r>     4.6194     0.0303     0.0434     0.0908     0.0972     0.0000     0.0000     0.0000     0.0000     0.0000 </r>
        <r>     4.6793     0.0319     0.0460     0.0972     0.0943     0.0000     0.0000     0.0000     0.0000     0.0000 </r>
        <r>     4.7392     0.0285     0.0431     0.0879     0.0730     0.0000     0.0000     0.0000     0.0000     0.0000 </r>
        <r>     4.7991     0.0268     0.0381     0.0739     0.0611     0.0000     0.0000     0.0000     0.0000     0.0000 </r>
        <r>     4.8590     0.0258     0.0366     0.0704     0.0575     0.0000     0.0000     0.0000     0.0000     0.0000 </r>
        <r>     4.9189     0.0247     0.0354     0.0677     0.0541     0.0000     0.0000     0.0000     0.0000     0.0000 </r>
        <r>     4.9789     0.0237     0.0341     0.0650     0.0509     0.0000     0.0000     0.0000     0.0000     0.0000 </r>
        <r>     5.0388     0.0229     0.0385     0.0700     0.0552     0.0000     0.0000     0.0000     0.0000     0.0000 </r>
        <r>     5.0987     0.0223     0.0441     0.0783     0.0626     0.0000     0.0000     0.0000     0.0000     0.0000 </r>
        <r>     5.1586     0.0221     0.0500     0.0890     0.0722     0.0000     0.0000     0.0000     0.0000     0.0000 </r>
        <r>     5.2185     0.0215     0.0518     0.0929     0.0746     0.0000     0.0000     0.0000     0.0000     0.0000 </r>
        <r>     5.2785     0.0207     0.0525     0.0944     0.0747     0.0000     0.0000     0.0000     0.0000     0.0000 </r>
        <r>     5.3384     0.0199     0.0529     0.0957     0.0746     0.0000     0.0000     0.0000     0.0000     0.0000 </r>
        <r>     5.3983     0.0191     0.0531     0.0968     0.0745     0.0000     0.0000     0.0000     0.0000     0.0000 </r>
        <r>     5.4582     0.0183     0.0531     0.0975     0.0742     0.0000     0.0000     0.0000     0.0000     0.0000 </r>
        <r>     5.5181     0.0175     0.0529     0.0981     0.0738     0.0000     0.0000     0.0000     0.0000     0.0000 </r>
        <r>     5.5780     0.0167     0.0524     0.0983     0.0733     0.0000     0.0000     0.0000     0.0000     0.0000 </r>
        <r>     5.6380     0.0160     0.0518     0.0983     0.0726     0.0000     0.0000     0.0000     0.0000     0.0000 </r>
        <r>     5.6979     0.0152     0.0509     0.0981     0.0718     0.0000     0.0000     0.0000     0.0000     0.0000 </r>
        <r>     5.7578     0.0183     0.0578     0.1175     0.0704     0.0000     0.0000     0.0000     0.0000     0.0000 </r>
        <r>     5.8177     0.0169     0.0562     0.1172     0.0695     0.0000     0.0000     0.0000     0.0000     0.0000 </r>
        <r>     5.8776     0.0149     0.0526     0.1115     0.0685     0.0000     0.0000     0.0000     0.0000     0.0000 </r>
        <r>     5.9375     0.0128     0.0450     0.0992     0.0617     0.0000     0.0000     0.0000     0.0000     0.0000 </r>
        <r>     5.9975     0.0108     0.0361     0.0804     0.0499     0.0000     0.0000     0.0000     0.0000     0.0000 </r>
        <r>     6.0574     0.0088     0.0288     0.0633     0.0420     0.0000     0.0000     0.0000     0.0000     0.0000 </r>
        <r>     6.1173     0.0070     0.0223     0.0475     0.0359     0.0000     0.0000     0.0000     0.0000     0.0000 </r>
        <r>     6.1772     0.0058     0.0178     0.0398     0.0291     0.0000     0.0000     0.0000     0.0000     0.0000 </r>
        <r>     6.2371     0.0054     0.0163     0.0360     0.0265     0.0000     0.0000     0.0000     0.0000     0.0000 </r>
        <r>     6.2970     0.0049     0.0149     0.0324     0.0239     0.0000     0.0000     0.0000     0.0000     0.0000 </r>
        <r>     6.3570     0.0045     0.0136     0.0290     0.0215     0.0000     0.0000     0.0000     0.0000     0.0000 </r>
        <r>     6.4169     0.0040     0.0123     0.0258     0.0192     0.0000     0.0000     0.0000     0.0000     0.0000 </r>
        <r>     6.4768     0.0036     0.0111     0.0229     0.0170     0.0000     0.0000     0.0000     0.0000     0.0000 </r>
        <r>     6.5367     0.0033     0.0100     0.0202     0.0149     0.0000     0.0000     0.0000     0.0000     0.0000 </r>
        <r>     6.5966     0.0029     0.0089     0.0178     0.0130     0.0000     0.0000     0.0000     0.0000     0.0000 </r>
        <r>     6.6565     0.0025     0.0079     0.0155     0.0113     0.0000     0.0000     0.0000     0.0000     0.0000 </r>
        <r>     6.7165     0.0022     0.0070     0.0136     0.0096     0.0000     0.0000     0.0000     0.0000     0.0000 </r>
        <r>     6.7764     0.0019     0.0061     0.0118     0.0081     0.0000     0.0000     0.0000     0.0000     0.0000 </r>
        <r>     6.8363     0.0016     0.0054     0.0103     0.0069     0.0000     0.0000     0.0000     0.0000     0.0000 </r>
        <r>     6.8962     0.0014     0.0048     0.0091     0.0060     0.0000     0.0000     0.0000     0.0000     0.0000 </r>
        <r>     6.9561     0.0012     0.0042     0.0079     0.0052     0.0000     0.0000     0.0000     0.0000     0.0000 </r>
        <r>     7.0160     0.0010     0.0036     0.0068     0.0045     0.0000     0.0000     0.0000     0.0000     0.0000 </r>
        <r>     7.0760     0.0009     0.0031     0.0058     0.0039     0.0000     0.0000     0.0000     0.0000     0.0000 </r>
        <r>     7.1359     0.0007     0.0027     0.0049     0.0033     0.0000     0.0000     0.0000     0.0000     0.0000 </r>
        <r>     7.1958     0.0006     0.0023     0.0041     0.0027     0.0000     0.0000     0.0000     0.0000     0.0000 </r>
        <r>     7.2557     0.0005     0.0019     0.0033     0.0022     0.0000     0.0000     0.0000     0.0000     0.0000 </r>
        <r>     7.3156     0.0004     0.0016     0.0027     0.0018     0.0000     0.0000     0.0000     0.0000     0.0000 </r>
        <r>     7.3756     0.0003     0.0013     0.0021     0.0014     0.0000     0.0000     0.0000     0.0000     0.0000 </r>
        <r>     7.4355     0.0002     0.0010     0.0016     0.0011     0.0000     0.0000     0.0000     0.0000     0.0000 </r>
        <r>     7.4954     0.0001     0.0008     0.0012     0.0008     0.0000     0.0000     0.0000     0.0000     0.0000 </r>
        <r>     7.5553     0.0001     0.0007     0.0009     0.0006     0.0000     0.0000     0.0000     0.0000     0.0000 </r>
        <r>     7.6152     0.0001     0.0005     0.0007     0.0005     0.0000     0.0000     0.0000     0.0000     0.0000 </r>
        <r>     7.6751     0.0000     0.0005     0.0006     0.0004     0.0000     0.0000     0.0000     0.0000     0.0000 </r>
        <r>     7.7351     0.0000     0.0004     0.0005     0.0004     0.0000     0.0000     0.0000     0.0000     0.0000 </r>
        <r>     7.7950     0.0000     0.0004     0.0004     0.0003     0.0000     0.0000     0.0000     0.0000     0.0000 </r>
        <r>     7.8549     0.0000     0.0003     0.0004     0.0003     0.0000     0.0000     0.0000     0.0000     0.0000 </r>
        <r>     7.9148     0.0000     0.0003     0.0003     0.0003     0.0000     0.0000     0.0000     0.0000     0.0000 </r>
        <r>     7.9747     0.0000     0.0002     0.0003     0.0002     0.0000     0.0000     0.0000     0.0000     0.0000 </r>
        <r>     8.0346     0.0000     0.0002     0.0003     0.0002     0.0000     0.0000     0.0000     0.0000     0.0000 </r>
        <r>     8.0946     0.0000     0.0002     0.0002     0.0002     0.0000     0.0000     0.0000     0.0000     0.0000 </r>
        <r>     8.1545     0.0000     0.0002     0.0002     0.0002     0.0000     0.0000     0.0000     0.0000     0.0000 </r>
        <r>     8.2144     0.0000     0.0001     0.0002     0.0001     0.0000     0.0000     0.0000     0.0000     0.0000 </r>
        <r>     8.2743     0.0000     0.0001     0.0001     0.0001     0.0000     0.0000     0.0000     0.0000     0.0000 </r>
        <r>     8.3342     0.0000     0.0001     0.0001     0.0001     0.0000     0.0000     0.0000     0.0000     0.0000 </r>
        <r>     8.3941     0.0000     0.0001     0.0001     0.0001     0.0000     0.0000     0.0000     0.0000     0.0000 </r>
        <r>     8.4541     0.0000     0.0001     0.0001     0.0001     0.0000     0.0000     0.0000     0.0000     0.0000 </r>
        <r>     8.5140     0.0000     0.0000     0.0000     0.0000     0.0000     0.0000     0.0000     0.0000     0.0000 </r>
        <r>     8.5739     0.0000     0.0000     0.0000     0.0000     0.0000     0.0000     0.0000     0.0000     0.0000 </r>
        <r>     8.6338     0.0000     0.0000     0.0000     0.0000     0.0000     0.0000     0.0000     0.0000     0.0000 </r>
        <r>     8.6937     0.0000     0.0000     0.0000     0.0000     0.0000     0.0000     0.0000     0.0000     0.0000 </r>
        <r>     8.7536     0.0000     0.0000     0.0000     0.0000     0.0000     0.0000     0.0000     0.0000     0.0000 </r>
        <r>     8.8136     0.0000     0.0000     0.0000     0.0000     0.0000     0.0000     0.0000     0.0000     0.0000 </r>
        <r>     8.8735     0.0000     0.0000     0.0000     0.0000     0.0000     0.0000     0.0000     0.0000     0.0000 </r>
        <r>     8.9334     0.0000     0.0000     0.0000     0.0000     0.0000     0.0000     0.0000     0.0000     0.0000 </r>
        <r>     8.9933     0.0000     0.0000     0.0000     0.0000     0.0000     0.0000     0.0000     0.0000     0.0000 </r>
        <r>     9.0532     0.0000     0.0000     0.0000     0.0000     0.0000     0.0000     0.0000     0.0000     0.0000 </r>
        <r>     9.1131     0.0000     0.0000     0.0000     0.0000     0.0000     0.0000     0.0000     0.0000     0.0000 </r>
        <r>     9.1731     0.0000     0.0000     0.0000     0.0000     0.0000     0.0000     0.0000     0.0000     0.0000 </r>
        <r>     9.2330     0.0000     0.0000     0.0000     0.0000     0.0000     0.0000     0.0000     0.0000     0.0000 </r>
        <r>     9.2929     0.0000     0.0000     0.0000     0.0000     0.0000     0.0000     0.0000     0.0000     0.0000 </r>
        <r>     9.3528     0.0000     0.0000     0.0000     0.0000     0.0000     0.0000     0.0000     0.0000     0.0000 </r>
        <r>     9.4127     0.0000     0.0000     0.0000     0.0000     0.0000     0.0000     0.0000     0.0000     0.0000 </r>
[...]
       </set>
       <set comment="band 2">
        <r>  0.2805  0.0011  0.0011  0.0011  0.0000  0.0000  0.0000  0.0000  0.0000 </r>
        <r>  0.0310  0.0036  0.0076  0.0036  0.0000  0.0000  0.0000  0.0000  0.0000 </r>
        <r>  0.0310  0.0076  0.0036  0.0036  0.0000  0.0000  0.0000  0.0000  0.0000 </r>
        <r>  0.0310  0.0036  0.0036  0.0076  0.0000  0.0000  0.0000  0.0000  0.0000 </r>
       </set>
       <set comment="band 3">
        <r>  0.0000  0.0021  0.0083  0.0044  0.0000  0.0000  0.0000  0.0000  0.0000 </r>
        <r>  0.2193  0.0021  0.0026  0.0005  0.0000  0.0000  0.0000  0.0000  0.0000 </r>
        <r>  0.0543  0.0006  0.0049  0.0064  0.0000  0.0000  0.0000  0.0000  0.0000 </r>
        <r>  0.1158  0.0030  0.0051  0.0014  0.0000  0.0000  0.0000  0.0000  0.0000 </r>
       </set>
       <set comment="band 4">
        <r>  0.0000  0.0078  0.0015  0.0054  0.0000  0.0000  0.0000  0.0000  0.0000 </r>
        <r>  0.0403  0.0053  0.0005  0.0069  0.0000  0.0000  0.0000  0.0000  0.0000 </r>
        <r>  0.2053  0.0024  0.0024  0.0009  0.0000  0.0000  0.0000  0.0000  0.0000 </r>
        <r>  0.1438  0.0044  0.0023  0.0017  0.0000  0.0000  0.0000  0.0000  0.0000 </r>
       </set>
       <set comment="band 5">
        <r>  0.0808  0.0062  0.0062  0.0062  0.0000  0.0000  0.0000  0.0000  0.0000 </r>
        <r>  0.0093  0.0091  0.0509  0.0091  0.0000  0.0000  0.0000  0.0000  0.0000 </r>
        <r>  0.0093  0.0509  0.0091  0.0091  0.0000  0.0000  0.0000  0.0000  0.0000 </r>
        <r>  0.0093  0.0091  0.0091  0.0509  0.0000  0.0000  0.0000  0.0000  0.0000 </r>
       </set>
       <set comment="band 6">
        <r>  0.0000  0.0095  0.0385  0.0203  0.0000  0.0000  0.0000  0.0000  0.0000 </r>
        <r>  0.0497  0.0296  0.0021  0.0061  0.0000  0.0000  0.0000  0.0000  0.0000 </r>
        <r>  0.0123  0.0005  0.0170  0.0485  0.0000  0.0000  0.0000  0.0000  0.0000 </r>
        <r>  0.0262  0.0370  0.0174  0.0011  0.0000  0.0000  0.0000  0.0000  0.0000 </r>
       </set>
       <set comment="band 7">
        <r>  0.0000  0.0360  0.0071  0.0252  0.0000  0.0000  0.0000  0.0000  0.0000 </r>
        <r>  0.0091  0.0223  0.0004  0.0458  0.0000  0.0000  0.0000  0.0000  0.0000 </r>
        <r>  0.0465  0.0020  0.0349  0.0034  0.0000  0.0000  0.0000  0.0000  0.0000 </r>
        <r>  0.0326  0.0149  0.0345  0.0014  0.0000  0.0000  0.0000  0.0000  0.0000 </r>
       </set>
       <set comment="band 8">
        <r>  0.0154  0.0461  0.0461  0.0461  0.0000  0.0000  0.0000  0.0000  0.0000 </r>
        <r>  0.0109  0.0158  0.0229  0.0158  0.0000  0.0000  0.0000  0.0000  0.0000 </r>
        <r>  0.0109  0.0229  0.0158  0.0158  0.0000  0.0000  0.0000  0.0000  0.0000 </r>
        <r>  0.0109  0.0158  0.0158  0.0229  0.0000  0.0000  0.0000  0.0000  0.0000 </r>
       </set>
       <set comment="band 9">
        <r>  0.0000  0.0064  0.0257  0.0136  0.0000  0.0000  0.0000  0.0000  0.0000 </r>
        <r>  0.0143  0.0162  0.0454  0.0560  0.0000  0.0000  0.0000  0.0000  0.0000 </r>
        <r>  0.0035  0.0112  0.0461  0.0013  0.0000  0.0000  0.0000  0.0000  0.0000 </r>
        <r>  0.0075  0.0347  0.0219  0.0240  0.0000  0.0000  0.0000  0.0000  0.0000 </r>
       </set>
       <set comment="band 10">
        <r>  0.0000  0.0241  0.0047  0.0169  0.0000  0.0000  0.0000  0.0000  0.0000 </r>
        <r>  0.0026  0.0426  0.0083  0.0027  0.0000  0.0000  0.0000  0.0000  0.0000 </r>
        <r>  0.0134  0.0425  0.0126  0.0574  0.0000  0.0000  0.0000  0.0000  0.0000 </r>
        <r>  0.0094  0.0240  0.0368  0.0298  0.0000  0.0000  0.0000  0.0000  0.0000 </r>
       </set>
       <set comment="band 11">
        <r>  0.0410  0.0278  0.0278  0.0278  0.0000  0.0000  0.0000  0.0000  0.0000 </r>
        <r>  0.0145  0.0145  0.0093  0.0145  0.0000  0.0000  0.0000  0.0000  0.0000 </r>
        <r>  0.0145  0.0093  0.0145  0.0145  0.0000  0.0000  0.0000  0.0000  0.0000 </r>
        <r>  0.0145  0.0145  0.0145  0.0093  0.0000  0.0000  0.0000  0.0000  0.0000 </r>
       </set>
       <set comment="band 12">
        <r>  0.0000  0.0174  0.0703  0.0371  0.0000  0.0000  0.0000  0.0000  0.0000 </r>
        <r>  0.0030  0.0239  0.0730  0.0153  0.0000  0.0000  0.0000  0.0000  0.0000 </r>
        <r>  0.0007  0.0181  0.0035  0.0166  0.0000  0.0000  0.0000  0.0000  0.0000 </r>
        <r>  0.0016  0.0216  0.0056  0.0385  0.0000  0.0000  0.0000  0.0000  0.0000 </r>
       </set>
      </set>
      <set comment="kpoint 8">
       <set comment="band 1">
        <r>  0.0894  0.0033  0.0033  0.0054  0.0000  0.0000  0.0000  0.0000  0.0000 </r>
        <r>  0.0902  0.0032  0.0032  0.0054  0.0000  0.0000  0.0000  0.0000  0.0000 </r>
        <r>  0.0902  0.0032  0.0032  0.0054  0.0000  0.0000  0.0000  0.0000  0.0000 </r>
        <r>  0.0894  0.0033  0.0033  0.0054  0.0000  0.0000  0.0000  0.0000  0.0000 </r>
       </set>
       <set comment="band 2">
        <r>  0.0875  0.0012  0.0012  0.0074  0.0000  0.0000  0.0000  0.0000  0.0000 </r>
        <r>  0.0870  0.0012  0.0012  0.0075  0.0000  0.0000  0.0000  0.0000  0.0000 </r>
        <r>  0.0870  0.0012  0.0012  0.0075  0.0000  0.0000  0.0000  0.0000  0.0000 </r>
        <r>  0.0874  0.0012  0.0012  0.0074  0.0000  0.0000  0.0000  0.0000  0.0000 </r>
       </set>
       <set comment="band 3">
        <r>  0.2041  0.0029  0.0029  0.0021  0.0000  0.0000  0.0000  0.0000  0.0000 </r>
        <r>  0.0001  0.0054  0.0054  0.0001  0.0000  0.0000  0.0000  0.0000  0.0000 </r>
        <r>  0.0001  0.0054  0.0054  0.0001  0.0000  0.0000  0.0000  0.0000  0.0000 </r>
        <r>  0.2041  0.0029  0.0029  0.0021  0.0000  0.0000  0.0000  0.0000  0.0000 </r>
       </set>
       <set comment="band 4">
        <r>  0.0000  0.0051  0.0051  0.0000  0.0000  0.0000  0.0000  0.0000  0.0000 </r>
        <r>  0.2092  0.0024  0.0024  0.0021  0.0000  0.0000  0.0000  0.0000  0.0000 </r>
        <r>  0.2092  0.0024  0.0024  0.0021  0.0000  0.0000  0.0000  0.0000  0.0000 </r>
        <r>  0.0000  0.0051  0.0051  0.0000  0.0000  0.0000  0.0000  0.0000  0.0000 </r>
       </set>
       <set comment="band 5">
        <r>  0.0271  0.0008  0.0008  0.0344  0.0000  0.0000  0.0000  0.0000  0.0000 </r>
        <r>  0.0005  0.0375  0.0375  0.0002  0.0000  0.0000  0.0000  0.0000  0.0000 </r>
        <r>  0.0005  0.0375  0.0375  0.0002  0.0000  0.0000  0.0000  0.0000  0.0000 </r>
        <r>  0.0271  0.0008  0.0008  0.0344  0.0000  0.0000  0.0000  0.0000  0.0000 </r>
       </set>
       <set comment="band 6">
        <r>  0.0000  0.0351  0.0351  0.0000  0.0000  0.0000  0.0000  0.0000  0.0000 </r>
        <r>  0.0237  0.0006  0.0006  0.0400  0.0000  0.0000  0.0000  0.0000  0.0000 </r>
        <r>  0.0237  0.0006  0.0006  0.0400  0.0000  0.0000  0.0000  0.0000  0.0000 </r>
        <r>  0.0000  0.0351  0.0351  0.0000  0.0000  0.0000  0.0000  0.0000  0.0000 </r>
       </set>
       <set comment="band 7">
        <r>  0.0247  0.0272  0.0272  0.0106  0.0000  0.0000  0.0000  0.0000  0.0000 </r>
        <r>  0.0194  0.0221  0.0221  0.0115  0.0000  0.0000  0.0000  0.0000  0.0000 </r>
        <r>  0.0194  0.0221  0.0221  0.0115  0.0000  0.0000  0.0000  0.0000  0.0000 </r>
        <r>  0.0247  0.0272  0.0272  0.0106  0.0000  0.0000  0.0000  0.0000  0.0000 </r>
       </set>
       <set comment="band 8">
        <r>  0.0210  0.0309  0.0309  0.0270  0.0000  0.0000  0.0000  0.0000  0.0000 </r>
        <r>  0.0211  0.0233  0.0233  0.0120  0.0000  0.0000  0.0000  0.0000  0.0000 </r>
        <r>  0.0211  0.0233  0.0233  0.0120  0.0000  0.0000  0.0000  0.0000  0.0000 </r>
        <r>  0.0210  0.0309  0.0309  0.0270  0.0000  0.0000  0.0000  0.0000  0.0000 </r>
       </set>
       <set comment="band 9">
        <r>  0.0000  0.0214  0.0214  0.0000  0.0000  0.0000  0.0000  0.0000  0.0000 </r>
        <r>  0.0176  0.0490  0.0491  0.0133  0.0000  0.0000  0.0000  0.0000  0.0000 </r>
        <r>  0.0176  0.0491  0.0490  0.0133  0.0000  0.0000  0.0000  0.0000  0.0000 </r>
        <r>  0.0000  0.0214  0.0214  0.0000  0.0000  0.0000  0.0000  0.0000  0.0000 </r>
       </set>
       <set comment="band 10">
        <r>  0.0250  0.0225  0.0225  0.0442  0.0000  0.0000  0.0000  0.0000  0.0000 </r>
        <r>  0.0069  0.0022  0.0022  0.0461  0.0000  0.0000  0.0000  0.0000  0.0000 </r>
        <r>  0.0069  0.0022  0.0022  0.0461  0.0000  0.0000  0.0000  0.0000  0.0000 </r>
        <r>  0.0250  0.0225  0.0225  0.0443  0.0000  0.0000  0.0000  0.0000  0.0000 </r>
       </set>
       <set comment="band 11">
        <r>  0.0000  0.0417  0.0417  0.0000  0.0000  0.0000  0.0000  0.0000  0.0000 </r>
        <r>  0.0056  0.0296  0.0295  0.0227  0.0000  0.0000  0.0000  0.0000  0.0000 </r>
        <r>  0.0056  0.0295  0.0296  0.0227  0.0000  0.0000  0.0000  0.0000  0.0000 </r>
        <r>  0.0000  0.0417  0.0417  0.0000  0.0000  0.0000  0.0000  0.0000  0.0000 </r>
       </set>
       <set comment="band 12">
        <r>  0.0090  0.0197  0.0197  0.0703  0.0000  0.0000  0.0000  0.0000  0.0000 </r>
        <r>  0.0009  0.0209  0.0208  0.0004  0.0000  0.0000  0.0000  0.0000  0.0000 </r>
        <r>  0.0009  0.0208  0.0209  0.0004  0.0000  0.0000  0.0000  0.0000  0.0000 </r>
        <r>  0.0089  0.0196  0.0196  0.0700  0.0000  0.0000  0.0000  0.0000  0.0000 </r>
       </set>
      </set>
      <set comment="kpoint 9">
       <set comment="band 1">
        <r>  0.0905  0.0054  0.0033  0.0054  0.0000  0.0000  0.0000  0.0000  0.0000 </r>
        <r>  0.0905  0.0054  0.0033  0.0054  0.0000  0.0000  0.0000  0.0000  0.0000 </r>
        <r>  0.0905  0.0054  0.0033  0.0054  0.0000  0.0000  0.0000  0.0000  0.0000 </r>
        <r>  0.0905  0.0054  0.0033  0.0054  0.0000  0.0000  0.0000  0.0000  0.0000 </r>
       </set>
       <set comment="band 2">
        <r>  0.1849  0.0007  0.0018  0.0007  0.0000  0.0000  0.0000  0.0000  0.0000 </r>
        <r>  0.1849  0.0007  0.0018  0.0007  0.0000  0.0000  0.0000  0.0000  0.0000 </r>
        <r>  0.0000  0.0081  0.0000  0.0081  0.0000  0.0000  0.0000  0.0000  0.0000 </r>
        <r>  0.0000  0.0081  0.0000  0.0081  0.0000  0.0000  0.0000  0.0000  0.0000 </r>
       </set>
       <set comment="band 3">
        <r>  0.0000  0.0081  0.0000  0.0081  0.0000  0.0000  0.0000  0.0000  0.0000 </r>
        <r>  0.0000  0.0081  0.0000  0.0081  0.0000  0.0000  0.0000  0.0000  0.0000 </r>
        <r>  0.1849  0.0007  0.0018  0.0007  0.0000  0.0000  0.0000  0.0000  0.0000 </r>
        <r>  0.1849  0.0007  0.0018  0.0007  0.0000  0.0000  0.0000  0.0000  0.0000 </r>
       </set>
       <set comment="band 4">
        <r>  0.1104  0.0001  0.0046  0.0001  0.0000  0.0000  0.0000  0.0000  0.0000 </r>
        <r>  0.1104  0.0001  0.0046  0.0001  0.0000  0.0000  0.0000  0.0000  0.0000 </r>
        <r>  0.1104  0.0001  0.0046  0.0001  0.0000  0.0000  0.0000  0.0000  0.0000 </r>
        <r>  0.1104  0.0001  0.0046  0.0001  0.0000  0.0000  0.0000  0.0000  0.0000 </r>
       </set>
       <set comment="band 5">
        <r>  0.0025  0.0197  0.0183  0.0197  0.0000  0.0000  0.0000  0.0000  0.0000 </r>
        <r>  0.0025  0.0197  0.0183  0.0197  0.0000  0.0000  0.0000  0.0000  0.0000 </r>
        <r>  0.0025  0.0197  0.0183  0.0197  0.0000  0.0000  0.0000  0.0000  0.0000 </r>
        <r>  0.0025  0.0197  0.0183  0.0197  0.0000  0.0000  0.0000  0.0000  0.0000 </r>
       </set>
       <set comment="band 6">
        <r>  0.0365  0.0008  0.0451  0.0008  0.0000  0.0000  0.0000  0.0000  0.0000 </r>
        <r>  0.0365  0.0008  0.0451  0.0008  0.0000  0.0000  0.0000  0.0000  0.0000 </r>
        <r>  0.0000  0.0320  0.0000  0.0320  0.0000  0.0000  0.0000  0.0000  0.0000 </r>
        <r>  0.0000  0.0320  0.0000  0.0320  0.0000  0.0000  0.0000  0.0000  0.0000 </r>
       </set>
       <set comment="band 7">
        <r>  0.0000  0.0320  0.0000  0.0320  0.0000  0.0000  0.0000  0.0000  0.0000 </r>
        <r>  0.0000  0.0320  0.0000  0.0320  0.0000  0.0000  0.0000  0.0000  0.0000 </r>
        <r>  0.0365  0.0008  0.0451  0.0008  0.0000  0.0000  0.0000  0.0000  0.0000 </r>
        <r>  0.0365  0.0008  0.0451  0.0008  0.0000  0.0000  0.0000  0.0000  0.0000 </r>
       </set>
       <set comment="band 8">
        <r>  0.0264  0.0207  0.0225  0.0207  0.0000  0.0000  0.0000  0.0000  0.0000 </r>
        <r>  0.0264  0.0207  0.0225  0.0207  0.0000  0.0000  0.0000  0.0000  0.0000 </r>
        <r>  0.0264  0.0207  0.0225  0.0207  0.0000  0.0000  0.0000  0.0000  0.0000 </r>
        <r>  0.0264  0.0207  0.0225  0.0207  0.0000  0.0000  0.0000  0.0000  0.0000 </r>
       </set>
       <set comment="band 9">
        <r>  0.0108  0.0149  0.0455  0.0149  0.0000  0.0000  0.0000  0.0000  0.0000 </r>
        <r>  0.0108  0.0149  0.0455  0.0149  0.0000  0.0000  0.0000  0.0000  0.0000 </r>
        <r>  0.0108  0.0149  0.0455  0.0149  0.0000  0.0000  0.0000  0.0000  0.0000 </r>
        <r>  0.0108  0.0149  0.0455  0.0149  0.0000  0.0000  0.0000  0.0000  0.0000 </r>
       </set>
       <set comment="band 10">
        <r>  0.0000  0.0259  0.0000  0.0259  0.0000  0.0000  0.0000  0.0000  0.0000 </r>
        <r>  0.0000  0.0211  0.0000  0.0211  0.0000  0.0000  0.0000  0.0000  0.0000 </r>
        <r>  0.0168  0.0033  0.1028  0.0043  0.0000  0.0000  0.0000  0.0000  0.0000 </r>
        <r>  0.0168  0.0043  0.1028  0.0033  0.0000  0.0000  0.0000  0.0000  0.0000 </r>
       </set>
       <set comment="band 11">
        <r>  0.0168  0.0037  0.1029  0.0037  0.0000  0.0000  0.0000  0.0000  0.0000 </r>
        <r>  0.0168  0.0037  0.1029  0.0037  0.0000  0.0000  0.0000  0.0000  0.0000 </r>
        <r>  0.0000  0.0235  0.0000  0.0235  0.0000  0.0000  0.0000  0.0000  0.0000 </r>
        <r>  0.0000  0.0235  0.0000  0.0235  0.0000  0.0000  0.0000  0.0000  0.0000 </r>
       </set>
       <set comment="band 12">
        <r>  0.0056  0.0140  0.0457  0.0140  0.0000  0.0000  0.0000  0.0000  0.0000 </r>
        <r>  0.0055  0.0147  0.0455  0.0147  0.0000  0.0000  0.0000  0.0000  0.0000 </r>
        <r>  0.0055  0.0143  0.0456  0.0143  0.0000  0.0000  0.0000  0.0000  0.0000 </r>
        <r>  0.0055  0.0143  0.0456  0.0143  0.0000  0.0000  0.0000  0.0000  0.0000 </r>
       </set>
      </set>
      <set comment="kpoint 10">
       <set comment="band 1">
        <r>  0.0913  0.0053  0.0053  0.0053  0.0000  0.0000  0.0000  0.0000  0.0000 </r>
        <r>  0.0913  0.0053  0.0053  0.0053  0.0000  0.0000  0.0000  0.0000  0.0000 </r>
        <r>  0.0913  0.0053  0.0053  0.0053  0.0000  0.0000  0.0000  0.0000  0.0000 </r>
        <r>  0.0913  0.0053  0.0053  0.0053  0.0000  0.0000  0.0000  0.0000  0.0000 </r>
       </set>
       <set comment="band 2">
        <r>  0.2986  0.0000  0.0000  0.0000  0.0000  0.0000  0.0000  0.0000  0.0000 </r>
        <r>  0.0332  0.0018  0.0067  0.0018  0.0000  0.0000  0.0000  0.0000  0.0000 </r>
        <r>  0.0332  0.0067  0.0018  0.0018  0.0000  0.0000  0.0000  0.0000  0.0000 </r>
        <r>  0.0332  0.0018  0.0018  0.0067  0.0000  0.0000  0.0000  0.0000  0.0000 </r>
       </set>
       <set comment="band 3">
        <r>  0.0000  0.0059  0.0004  0.0053  0.0000  0.0000  0.0000  0.0000  0.0000 </r>
        <r>  0.0152  0.0054  0.0001  0.0056  0.0000  0.0000  0.0000  0.0000  0.0000 </r>
        <r>  0.2028  0.0008  0.0020  0.0009  0.0000  0.0000  0.0000  0.0000  0.0000 </r>
        <r>  0.1802  0.0013  0.0026  0.0008  0.0000  0.0000  0.0000  0.0000  0.0000 </r>
       </set>
       <set comment="band 4">
        <r>  0.0000  0.0018  0.0073  0.0025  0.0000  0.0000  0.0000  0.0000  0.0000 </r>
        <r>  0.2502  0.0005  0.0010  0.0004  0.0000  0.0000  0.0000  0.0000  0.0000 </r>
        <r>  0.0627  0.0003  0.0039  0.0051  0.0000  0.0000  0.0000  0.0000  0.0000 </r>
        <r>  0.0853  0.0047  0.0033  0.0004  0.0000  0.0000  0.0000  0.0000  0.0000 </r>
       </set>
       <set comment="band 5">
        <r>  0.0326  0.0101  0.0101  0.0101  0.0000  0.0000  0.0000  0.0000  0.0000 </r>
        <r>  0.0036  0.0042  0.0532  0.0042  0.0000  0.0000  0.0000  0.0000  0.0000 </r>
        <r>  0.0036  0.0532  0.0042  0.0042  0.0000  0.0000  0.0000  0.0000  0.0000 </r>
        <r>  0.0036  0.0042  0.0042  0.0532  0.0000  0.0000  0.0000  0.0000  0.0000 </r>
       </set>
       <set comment="band 6">
        <r>  0.0000  0.0334  0.0025  0.0297  0.0000  0.0000  0.0000  0.0000  0.0000 </r>
        <r>  0.0017  0.0296  0.0000  0.0342  0.0000  0.0000  0.0000  0.0000  0.0000 </r>
        <r>  0.0221  0.0005  0.0374  0.0037  0.0000  0.0000  0.0000  0.0000  0.0000 </r>
        <r>  0.0196  0.0028  0.0410  0.0004  0.0000  0.0000  0.0000  0.0000  0.0000 </r>
       </set>
       <set comment="band 7">
        <r>  0.0000  0.0103  0.0412  0.0140  0.0000  0.0000  0.0000  0.0000  0.0000 </r>
        <r>  0.0273  0.0200  0.0006  0.0154  0.0000  0.0000  0.0000  0.0000  0.0000 </r>
        <r>  0.0068  0.0001  0.0122  0.0458  0.0000  0.0000  0.0000  0.0000  0.0000 </r>
        <r>  0.0093  0.0468  0.0085  0.0002  0.0000  0.0000  0.0000  0.0000  0.0000 </r>
       </set>
       <set comment="band 8">
        <r>  0.0262  0.0178  0.0178  0.0178  0.0000  0.0000  0.0000  0.0000  0.0000 </r>
        <r>  0.0262  0.0178  0.0178  0.0178  0.0000  0.0000  0.0000  0.0000  0.0000 </r>
        <r>  0.0262  0.0178  0.0178  0.0178  0.0000  0.0000  0.0000  0.0000  0.0000 </r>
        <r>  0.0262  0.0178  0.0178  0.0178  0.0000  0.0000  0.0000  0.0000  0.0000 </r>
       </set>
       <set comment="band 9">
        <r>  0.0000  0.0572  0.0043  0.0508  0.0000  0.0000  0.0000  0.0000  0.0000 </r>
        <r>  0.0000  0.0574  0.0043  0.0510  0.0000  0.0000  0.0000  0.0000  0.0000 </r>
        <r>  0.0000  0.0576  0.0043  0.0511  0.0000  0.0000  0.0000  0.0000  0.0000 </r>
        <r>  0.0000  0.0575  0.0043  0.0512  0.0000  0.0000  0.0000  0.0000  0.0000 </r>
       </set>
       <set comment="band 10">
        <r>  0.0000  0.0177  0.0707  0.0241  0.0000  0.0000  0.0000  0.0000  0.0000 </r>
        <r>  0.0000  0.0178  0.0707  0.0243  0.0000  0.0000  0.0000  0.0000  0.0000 </r>
        <r>  0.0000  0.0177  0.0710  0.0241  0.0000  0.0000  0.0000  0.0000  0.0000 </r>
        <r>  0.0000  0.0177  0.0710  0.0241  0.0000  0.0000  0.0000  0.0000  0.0000 </r>
       </set>
       <set comment="band 11">
        <r>  0.0133  0.0885  0.0885  0.0884  0.0000  0.0000  0.0000  0.0000  0.0000 </r>
        <r>  0.0015  0.0189  0.0005  0.0188  0.0000  0.0000  0.0000  0.0000  0.0000 </r>
        <r>  0.0015  0.0005  0.0189  0.0188  0.0000  0.0000  0.0000  0.0000  0.0000 </r>
        <r>  0.0015  0.0190  0.0190  0.0005  0.0000  0.0000  0.0000  0.0000  0.0000 </r>
       </set>
       <set comment="band 12">
        <r>  0.0000  0.0059  0.0004  0.0053  0.0000  0.0000  0.0000  0.0000  0.0000 </r>
        <r>  0.0007  0.0105  0.0052  0.0069  0.0000  0.0000  0.0000  0.0000  0.0000 </r>
        <r>  0.0091  0.0694  0.0433  0.0701  0.0000  0.0000  0.0000  0.0000  0.0000 </r>
        <r>  0.0081  0.0660  0.0356  0.0616  0.0000  0.0000  0.0000  0.0000  0.0000 </r>
       </set>
      </set>
     </set>
    </set>
   </array>
  </projected>
 </calculation>
 <structure name="finalpos" >
  <crystal>
   <varray name="basis" >
    <v>       4.83685625       0.00000000       0.00000000 </v>
    <v>       0.00000000       4.83685625       0.00000000 </v>
    <v>       0.00000000       0.00000000       4.83685625 </v>
   </varray>
   <i name="volume">    113.15911478 </i>
   <varray name="rec_basis" >
    <v>       0.20674586       0.00000000       0.00000000 </v>
    <v>       0.00000000       0.20674586       0.00000000 </v>
    <v>       0.00000000       0.00000000       0.20674586 </v>
   </varray>
  </crystal>
  <varray name="positions" >
   <v>       0.00000000       0.00000000       0.00000000 </v>
   <v>       0.40000000       0.40000000       0.00000000 </v>
   <v>       0.40000000       0.00000000       0.40000000 </v>
   <v>       0.00000000       0.40000000       0.40000000 </v>
  </varray>
 </structure>
</modeling>
