unknown system                          
           1
     4.836856    0.000000    0.000000
     0.000000    4.836856    0.000000
     0.000000    0.000000    4.836856
   Si
   4
Direct configuration=     1
   0.00000000  0.00000000  0.00000000
   0.40000000  0.40000000  0.00000000
   0.40000000  0.00000000  0.40000000
   0.00000000  0.40000000  0.40000000
